# vtk DataFile Version 2.0
Test
ASCII
DATASET UNSTRUCTURED_GRID
POINTS 7744 FLOAT
4.000000 0.000000 0.000000
-2.000000 -3.464102 0.000000
4.200000 0.000000 0.000000
-2.100000 -3.637307 0.000000
4.000000 0.000000 6.000000
-2.000000 -3.464102 6.000000
4.200000 0.000000 6.000000
-2.100000 -3.637307 6.000000
4.167238 -0.516032 0.000000
4.071571 -1.024061 0.000000
3.914460 -1.516484 0.000000
3.698271 -1.985933 0.000000
3.426249 -2.425381 0.000000
3.102464 -2.828247 0.000000
2.731755 -3.188490 0.000000
2.319661 -3.500702 0.000000
1.871867 -3.759236 0.000000
1.395436 -3.960014 0.000000
0.898102 -4.100936 0.000000
0.387317 -4.179909 0.000000
-0.129267 -4.195764 0.000000
-0.643916 -4.148264 0.000000
-1.148923 -4.038114 0.000000
-1.636722 -3.866950 0.000000
3.963028 0.538766 0.000000
3.853898 1.067596 0.000000
3.674608 1.576879 0.000000
3.428429 2.057362 0.000000
3.119845 2.500314 0.000000
2.754472 2.897688 0.000000
2.338956 3.242265 0.000000
1.880852 3.527782 0.000000
1.388488 3.749050 0.000000
0.870814 3.902044 0.000000
0.337239 3.983981 0.000000
-0.202538 3.993362 0.000000
-0.738706 3.930011 0.000000
-1.261515 3.795066 0.000000
-1.761460 3.590968 0.000000
-2.229139 3.320953 0.000000
-2.655866 2.990037 0.000000
-3.034136 2.604743 0.000000
-3.357084 2.172085 0.000000
-3.618848 1.699933 0.000000
-3.814677 1.196875 0.000000
-3.941016 0.672059 0.000000
-3.995575 0.135026 0.000000
-3.977362 -0.404463 0.000000
-3.886708 -0.936599 0.000000
-3.725258 -1.451708 0.000000
-3.495942 -1.940426 0.000000
-3.202921 -2.393864 0.000000
-2.851514 -2.803776 0.000000
-2.448099 -3.162700 0.000000
-1.530734 -3.695518 0.000000
-1.035276 -3.863703 0.000000
-0.522105 -3.965779 0.000000
-0.000000 -4.000000 0.000000
0.522105 -3.965779 0.000000
1.035276 -3.863703 0.000000
1.530734 -3.695518 0.000000
2.000000 -3.464102 0.000000
2.435046 -3.173413 0.000000
2.828427 -2.828427 0.000000
3.173413 -2.435046 0.000000
3.464102 -2.000000 0.000000
3.695518 -1.530734 0.000000
3.863703 -1.035276 0.000000
3.965779 -0.522105 0.000000
-2.543258 -3.341786 0.000000
-2.945533 -2.992621 0.000000
-3.300381 -2.595425 0.000000
-3.602121 -2.156579 0.000000
-3.845919 -1.683130 0.000000
-4.027874 -1.182677 0.000000
-4.145071 -0.663251 0.000000
-4.195635 -0.133184 0.000000
-4.178757 0.399019 0.000000
-4.094707 0.924820 0.000000
-3.944830 1.435785 0.000000
-3.731525 1.923715 0.000000
-3.458208 2.380779 0.000000
-3.129255 2.799640 0.000000
-2.749933 3.173571 0.000000
-2.326317 3.496563 0.000000
-1.864953 3.762931 0.000000
-1.373427 3.968297 0.000000
-0.859932 4.109834 0.000000
-0.332711 4.185286 0.000000
0.199776 4.193453 0.000000
0.728988 4.134215 0.000000
1.246436 4.008530 0.000000
1.743818 3.818419 0.000000
2.213159 3.566935 0.000000
2.646927 3.258111 0.000000
3.038165 2.896902 0.000000
3.380593 2.489098 0.000000
3.668713 2.041238 0.000000
3.897895 1.560502 0.000000
4.064452 1.054596 0.000000
4.165701 0.531633 0.000000
3.965779 -0.522105 6.000000
3.863703 -1.035276 6.000000
3.695518 -1.530734 6.000000
3.464102 -2.000000 6.000000
3.173413 -2.435046 6.000000
2.828427 -2.828427 6.000000
2.435046 -3.173413 6.000000
2.000000 -3.464102 6.000000
1.530734 -3.695518 6.000000
1.035276 -3.863703 6.000000
0.522105 -3.965779 6.000000
-0.000000 -4.000000 6.000000
-0.522105 -3.965779 6.000000
-1.035276 -3.863703 6.000000
-1.530734 -3.695518 6.000000
4.165701 0.531633 6.000000
4.064452 1.054596 6.000000
3.897895 1.560502 6.000000
3.668713 2.041238 6.000000
3.380593 2.489098 6.000000
3.038165 2.896902 6.000000
2.646927 3.258111 6.000000
2.213159 3.566935 6.000000
1.743818 3.818419 6.000000
1.246436 4.008530 6.000000
0.728988 4.134215 6.000000
0.199776 4.193453 6.000000
-0.332711 4.185286 6.000000
-0.859932 4.109834 6.000000
-1.373427 3.968297 6.000000
-1.864953 3.762931 6.000000
-2.326317 3.496563 6.000000
-2.749933 3.173571 6.000000
-3.129255 2.799640 6.000000
-3.458208 2.380779 6.000000
-3.731525 1.923715 6.000000
-3.944830 1.435785 6.000000
-4.094707 0.924820 6.000000
-4.178757 0.399019 6.000000
-4.195635 -0.133184 6.000000
-4.145071 -0.663251 6.000000
-4.027874 -1.182677 6.000000
-3.845919 -1.683130 6.000000
-3.602121 -2.156579 6.000000
-3.300381 -2.595425 6.000000
-2.945533 -2.992621 6.000000
-2.543258 -3.341786 6.000000
-1.636722 -3.866950 6.000000
-1.148923 -4.038114 6.000000
-0.643916 -4.148264 6.000000
-0.129267 -4.195764 6.000000
0.387317 -4.179909 6.000000
0.898102 -4.100936 6.000000
1.395436 -3.960014 6.000000
1.871867 -3.759236 6.000000
2.319661 -3.500702 6.000000
2.731755 -3.188490 6.000000
3.102464 -2.828247 6.000000
3.426249 -2.425381 6.000000
3.698271 -1.985933 6.000000
3.914460 -1.516484 6.000000
4.071571 -1.024061 6.000000
4.167238 -0.516032 6.000000
-2.448099 -3.162700 6.000000
-2.851514 -2.803776 6.000000
-3.202921 -2.393864 6.000000
-3.495942 -1.940426 6.000000
-3.725258 -1.451708 6.000000
-3.886708 -0.936599 6.000000
-3.977362 -0.404463 6.000000
-3.995575 0.135026 6.000000
-3.941016 0.672059 6.000000
-3.814677 1.196875 6.000000
-3.618848 1.699933 6.000000
-3.357084 2.172085 6.000000
-3.034136 2.604743 6.000000
-2.655866 2.990037 6.000000
-2.229139 3.320953 6.000000
-1.761460 3.590968 6.000000
-1.261515 3.795066 6.000000
-0.738706 3.930011 6.000000
-0.202538 3.993362 6.000000
0.337239 3.983981 6.000000
0.870814 3.902044 6.000000
1.388488 3.749050 6.000000
1.880852 3.527782 6.000000
2.338956 3.242265 6.000000
2.754472 2.897688 6.000000
3.119845 2.500314 6.000000
3.428429 2.057362 6.000000
3.674608 1.576879 6.000000
3.853898 1.067596 6.000000
3.963028 0.538766 6.000000
-2.000000 -3.464102 5.454545
-2.000000 -3.464102 4.909091
-2.000000 -3.464102 4.363636
-2.000000 -3.464102 3.818182
-2.000000 -3.464102 3.272727
-2.000000 -3.464102 2.727273
-2.000000 -3.464102 2.181818
-2.000000 -3.464102 1.636364
-2.000000 -3.464102 1.090909
-2.000000 -3.464102 0.545455
4.000000 0.000000 0.545455
4.000000 0.000000 1.090909
4.000000 0.000000 1.636364
4.000000 0.000000 2.181818
4.000000 0.000000 2.727273
4.000000 0.000000 3.272727
4.000000 0.000000 3.818182
4.000000 0.000000 4.363636
4.000000 0.000000 4.909091
4.000000 0.000000 5.454545
-2.100000 -3.637307 0.545455
-2.100000 -3.637307 1.090909
-2.100000 -3.637307 1.636364
-2.100000 -3.637307 2.181818
-2.100000 -3.637307 2.727273
-2.100000 -3.637307 3.272727
-2.100000 -3.637307 3.818182
-2.100000 -3.637307 4.363636
-2.100000 -3.637307 4.909091
-2.100000 -3.637307 5.454545
4.200000 0.000000 5.454545
4.200000 0.000000 4.909091
4.200000 0.000000 4.363636
4.200000 0.000000 3.818182
4.200000 0.000000 3.272727
4.200000 0.000000 2.727273
4.200000 0.000000 2.181818
4.200000 0.000000 1.636364
4.200000 0.000000 1.090909
4.200000 0.000000 0.545455
-3.899627 -0.854677 2.778919
2.727140 2.917254 3.263483
-3.760756 -1.338549 2.730044
3.573719 1.777718 3.714462
3.976021 0.365850 5.632614
3.908890 0.808105 5.557726
3.970879 0.444301 5.185006
3.771386 1.307235 5.517662
3.967899 0.489767 4.654756
3.556465 1.812705 5.530378
3.968206 0.485079 4.100611
3.276741 2.280405 5.532319
3.968715 0.477313 3.549009
2.939975 2.701232 5.532319
3.969105 0.471366 3.000000
2.549606 3.072947 5.532319
3.969105 0.471366 2.454545
2.112720 3.388785 5.532319
3.968931 0.474016 1.900450
1.637247 3.642992 5.532319
3.968181 0.485461 1.344964
1.131820 3.830931 5.532319
3.971004 0.442396 0.819987
0.605617 3.949168 5.532319
3.976247 0.362395 0.366702
0.068196 3.995530 5.532319
-0.470679 3.969150 5.532319
3.909661 0.804230 0.445856
-1.001214 3.870479 5.532319
3.770309 1.310408 0.490396
-1.513761 3.701280 5.532319
3.555349 1.814968 0.484332
-1.998998 3.464596 5.532319
3.276054 2.281434 0.475772
-2.446841 3.163069 5.532319
2.938501 2.702912 0.467681
-2.849852 2.803996 5.532319
2.547925 3.074421 0.467681
-3.200803 2.394054 5.532319
2.110861 3.390027 0.467681
-3.493340 1.940711 5.532319
1.635242 3.643980 0.467681
-3.722170 1.452221 5.532319
1.129703 3.831650 0.467681
-3.883158 0.937473 5.532319
0.603424 3.949604 0.467681
-3.973401 0.405829 5.532319
0.065965 3.995676 0.467681
-3.991280 -0.133046 5.532319
-0.472910 3.969004 0.467681
-3.936489 -0.669357 5.532319
-1.003406 3.870043 0.467681
-3.810041 -1.193360 5.532319
-1.515878 3.700561 0.467681
-3.614248 -1.695534 5.532319
-2.000929 3.463481 0.467681
-3.348241 -2.173397 5.524619
-2.448522 3.161595 0.467681
-3.018765 -2.611388 5.513001
-2.851326 2.802316 0.467681
-2.652445 -2.982759 5.554183
-3.202045 2.392195 0.467681
-2.308156 -3.258198 5.629787
-3.494329 1.938706 0.467681
-3.722888 1.450104 0.467681
-2.368628 -3.217792 5.180013
-3.883594 0.935281 0.467681
-2.406677 -3.192369 4.652753
-3.973547 0.403599 0.467681
-2.392768 -3.201663 4.090909
-3.991134 -0.135276 0.467681
-2.396331 -3.199282 3.547807
-3.936053 -0.671550 0.467681
-2.392768 -3.201663 3.000000
-3.809323 -1.195477 0.467681
-2.392768 -3.201663 2.454545
-3.612463 -1.699152 0.473481
-2.393611 -3.201099 1.901962
-3.347709 -2.174194 0.482288
-2.403514 -3.194482 1.347544
-3.018909 -2.611224 0.489207
-2.370811 -3.216333 0.815600
-2.654969 -2.980546 0.442375
-2.307691 -3.258509 0.369537
3.871723 0.994958 4.998412
3.680172 1.561852 5.066226
3.878420 0.961291 4.383916
3.431334 2.049040 5.061113
3.878673 0.960017 3.831589
3.121391 2.494366 5.060745
3.883674 0.934879 3.275251
2.752614 2.894913 5.067312
3.884435 0.931049 2.727273
2.337229 3.238772 5.067312
3.883205 0.937233 2.170647
1.879416 3.523567 5.067312
3.883937 0.933555 1.615568
1.387506 3.744137 5.067312
3.872455 0.991277 1.008790
0.870444 3.896490 5.067312
0.337633 3.977870 5.067312
-0.201242 3.986810 5.067312
-0.736386 3.923156 5.067312
-1.258075 3.788073 5.067312
3.676677 1.568940 0.969186
-1.756828 3.584021 5.067312
3.427905 2.054172 0.965604
-2.223580 3.314710 5.067312
3.113403 2.503474 0.942564
-2.649849 2.985036 5.067312
2.750933 2.896387 0.932688
-3.027886 2.600988 5.067312
2.335371 3.240014 0.932688
-3.350816 2.169544 5.067312
1.877412 3.524556 0.932688
-3.612765 1.698541 5.067312
1.385389 3.744856 0.932688
-3.808963 1.196535 5.067312
0.868252 3.896927 0.932688
-3.935835 0.672646 5.067312
0.335403 3.978017 0.932688
[...]
POINT_DATA 7744
SCALARS solution float 1
LOOKUP_TABLE default
-52.847865 -52.792249 -52.872151 -52.817840 11.925618 11.915896 11.950061 11.950803 -53.045821 -53.272000 -53.316529 -53.245449 -53.193968 -53.186870 -53.195397 -53.199890 -53.199360 -53.193556 -53.184014 -53.201007 -53.284366 -53.375278 -53.256759 -52.922179 -52.915312 -53.199923 -53.255667 -53.140865 -53.046836 -53.019754 -53.025205 -53.033655 -53.038122 -53.040064 -53.041037 -53.041316 -53.040687 -53.040341 -53.041506 -53.041774 -53.040168 -53.040653 -53.041215 -53.040930 -53.039915 -53.037698 -53.032008 -53.019400 -53.004593 -53.020398 -53.112154 -53.248300 -53.244373 -52.974381 -52.946292 -53.279911 -53.355393 -53.247649 -53.180812 -53.177944 -53.188336 -53.190790 -53.189472 -53.180598 -53.179045 -53.218894 -53.295913 -53.284308 -53.058896 -52.962856 -53.234197 -53.276615 -53.155075 -53.048011 -53.012903 -53.021565 -53.036148 -53.044276 -53.047280 -53.047950 -53.047510 -53.046083 -53.043659 -53.041290 -53.040869 -53.044677 -53.041323 -53.043532 -53.046067 -53.047545 -53.048027 -53.047513 -53.045126 -53.039214 -53.030613 -53.032390 -53.076702 -53.181655 -53.275995 -53.179652 -52.894981 11.892260 11.911211 11.880143 11.853695 11.840822 11.838916 11.841569 11.843430 11.841886 11.839854 11.842921 11.857163 11.888709 11.906218 11.901951 11.884244 11.873037 11.845429 11.807132 11.783741 11.774584 11.774961 11.779059 11.782706 11.784855 11.785885 11.786391 11.786756 11.787024 11.787172 11.787887 11.793195 11.787380 11.787036 11.786760 11.786513 11.786036 11.784820 11.782200 11.778006 11.773744 11.772993 11.780289 11.801571 11.838315 11.866775 11.883320 11.887912 11.911598 11.902107 11.867886 11.849927 11.844369 11.844768 11.846950 11.846810 11.844184 11.843071 11.847116 11.862994 11.890753 11.886233 11.901331 11.879782 11.860761 11.824816 11.790002 11.772327 11.768337 11.771446 11.776525 11.780420 11.782608 11.783799 11.784700 11.785686 11.786792 11.782067 11.787539 11.786598 11.785640 11.784634 11.783621 11.782469 11.780591 11.777286 11.772600 11.769601 11.774918 11.794812 11.831580 11.866382 11.882303 10.288951 8.242171 5.924261 3.099775 -0.388040 -4.777117 -10.479144 -18.420680 -30.557887 -45.658354 -45.754244 -30.693054 -18.524297 -10.540131 -4.814303 -0.409395 3.088657 5.915144 8.237585 10.287346 -45.696912 -30.577142 -18.417576 -10.474856 -4.775830 -0.389321 3.102210 5.922579 8.242937 10.298749 10.296946 8.238158 5.915963 3.087236 -0.407211 -4.815288 -10.544899 -18.527569 -30.714651 -45.785106 -5.036463 -0.997721 -5.553424 2.098272 10.971947 10.644696 9.257236 10.435429 7.174208 10.439242 4.578890 10.416036 1.400804 10.403509 -2.558510 10.405081 -7.593643 10.411416 -14.461768 10.415941 -24.655061 10.417949 -38.630147 10.418404 -49.561139 10.418334 10.418262 -48.404943 10.418156 -47.873514 10.418132 -48.020342 10.415946 -48.068520 10.418380 -48.156284 10.418096 -48.140759 10.418118 -48.146031 10.418402 -48.151296 10.418610 -48.153404 10.418032 -48.153725 10.415464 -48.153034 10.410094 -48.151276 10.403667 -48.149218 10.401828 -48.149910 10.411434 -48.153361 10.406106 -48.149389 10.405515 -48.149285 10.622919 -48.151279 10.957253 -48.152937 -48.153588 9.235847 -48.153113 7.159439 -48.150388 4.523445 -48.142834 1.379720 -48.131530 -2.579477 -48.138847 -7.622860 -48.102976 -14.484538 -48.077992 -24.675946 -47.969324 -38.790006 -48.602518 -49.538694 8.498297 8.682822 5.886867 8.616065 3.004373 8.591236 -0.611453 8.613873 -5.135017 8.622512 -11.187042 8.629912 -19.674938 8.633497 -34.002164 8.635053 8.635540 8.636158 8.636834 8.637258 -35.664524 8.638524 -35.779485 8.638339 -36.301790 8.636539 -36.508075 8.636362 -36.489516 8.635974 -36.489045 8.635796 -36.490657 8.635401 -36.490698 8.633743 -36.489699 8.628997 -36.488029 8.620372 -36.486539 8.612013 -36.488086 8.612523 -36.499941 8.575939 -36.498932 8.613151 -36.488140 8.457763 -36.486888 -36.488159 -36.489814 -36.490706 -36.490202 5.844986 -36.487091 2.942291 -36.484033 -0.689524 -36.499950 -5.204563 -36.494428 -11.303286 -35.958279 -19.894450 -35.881427 -34.245131 6.929953 6.697255 4.442111 6.639077 1.072885 6.649067 -3.016709 6.709654 -8.299527 6.720636 -15.622695 6.726265 -24.703282 6.728339 6.728820 6.729183 6.729419 6.729778 6.730187 -22.295686 6.729885 -24.466505 6.729002 -24.410205 6.727774 -24.569909 6.728140 -24.722961 6.728578 -24.721374 6.728947 -24.722021 6.728746 -24.722955 6.726848 -24.722358 6.719609 -24.721055 6.727157 -24.723558 6.709683 -24.725346 6.650123 -24.735367 6.540094 -24.728555 6.859453 -24.724212 -24.721773 -24.721741 -24.724134 -24.723065 -24.722092 4.376708 -24.720822 0.957224 -24.733750 -3.099436 -24.749666 -8.380703 -24.765328 -15.724978 -22.655511 -24.947886 4.327641 4.249864 -1.060981 4.396764 -5.683801 4.500341 -12.021396 4.511269 4.507175 4.515393 4.506716 4.509306 4.508237 4.515865 4.507258 4.512184 -15.290582 4.518482 -15.686072 4.506265 -16.000533 4.508113 -16.083724 4.508146 -16.102344 4.502494 -16.123252 4.494472 -16.097124 4.493488 -16.086107 4.495714 -16.105220 4.574792 -16.078683 4.446106 -16.080691 4.362861 -16.080129 -16.100828 -16.095192 -16.085199 -16.117655 -16.088415 -16.148983 -16.246058 -16.288425 -1.075405 -16.218469 -5.784172 -15.857417 -12.490302 -16.081453 2.092761 -16.465408 1.009803 1.454902 -3.071399 1.871943 -8.184088 1.877819 1.883015 1.888793 1.884701 1.883634 1.889343 1.886804 1.886896 1.886479 1.888971 -8.789754 1.878140 -9.572775 1.866876 -9.820360 1.872580 -9.844922 1.874553 -9.853490 1.868870 -9.860688 1.854203 -9.844369 1.831678 -9.837357 1.888753 -9.830428 2.302257 -9.835761 1.273335 -9.833666 -9.835741 -9.866358 -9.873191 -9.879427 -9.866455 -9.862045 -9.915927 -10.181777 -10.169175 -2.918664 -9.913339 -9.020849 -2.954991 -1.312957 -1.265784 -1.253171 -1.254972 -1.276469 -1.248770 -1.246309 -1.253851 -1.236010 -1.223392 -1.265564 -4.652735 -1.294792 -5.026844 -1.297005 -5.054177 -1.280310 -5.064169 -1.264719 -5.099526 -1.277188 -5.077987 -1.268061 -5.030901 -1.386206 -5.039704 -1.133022 -5.045927 -5.036707 -5.029565 -5.061875 -5.121146 -5.109608 -5.093521 -5.062459 -5.078818 -5.125008 -6.014166 -16.301350 7.068367 -25.392259 2.290946 11.006585 9.255833 10.391565 7.182797 10.522842 4.579490 10.563244 1.436393 10.556279 -2.484263 10.557872 -7.492445 10.563063 -14.206603 10.563064 -24.464402 10.557449 -38.602478 10.555245 -49.616444 10.560446 10.516831 10.558851 -48.061678 10.803632 -48.703139 -48.596125 -48.567181 9.029603 -48.584538 7.120399 -48.601842 4.575876 -48.602061 1.399240 -48.585512 -2.539286 -48.567704 -7.585153 -48.577839 -14.490371 -48.376917 -24.306782 -48.487267 -37.212545 -49.167516 10.648425 -48.430827 8.462097 8.718746 5.907263 8.735905 3.044269 8.797808 -0.521291 8.792995 -5.112109 8.796622 -11.173611 8.799886 -19.559924 8.796247 -33.700837 8.792408 8.796256 8.689916 8.746013 8.736337 -36.940934 -37.125261 -37.013632 -36.971913 -36.968748 6.080674 -36.971303 3.108555 -36.972578 -0.566041 -36.974054 -5.071187 -36.997323 -11.225348 -36.183652 -20.195613 -36.504658 -35.986227 6.967511 6.763139 4.508612 6.895518 1.132342 6.988787 -2.852104 6.948112 -8.180028 6.957463 -16.006571 7.009605 -25.273153 6.953021 6.988258 6.972133 6.465706 -25.491210 -25.267649 -24.492145 -25.015544 -25.002687 4.631025 -24.720154 1.370150 -24.725173 -2.798295 -24.752131 -8.182242 -24.699707 -15.518319 -22.715112 4.602271 4.691538 -0.851470 4.666904 -5.312082 4.610800 -11.231885 4.756212 4.652737 4.714221 4.747708 3.305790 -15.231377 -15.843704 -15.739252 -16.111540 -15.659555 -0.536201 -15.833811 -5.607061 -15.981892 -12.386499 1.591734 2.478458 -2.723613 1.421210 -7.879263 2.244946 2.084265 1.619006 2.536016 1.729676 -10.110187 -8.616495 -9.489909 -9.819889 -8.367817 -2.849677 -10.223196 -8.861591 -0.665843 -5.017438 -0.736703 -0.896350 -1.402837 -0.699717 -4.394323 -5.019830 -5.233956 -5.181901 -2.823815 -2.819152 -18.069426 4.915941 -5.379139 -3.095670 -3.007804 2.126940 10.985168 9.246679 10.410526 7.156057 10.434409 4.525875 10.446611 1.384639 10.433864 -2.569428 10.433017 -7.607741 10.438545 -14.473326 10.445061 -24.704796 10.449370 -38.714164 10.451373 -49.621697 10.452075 10.452389 -48.614811 10.452807 -47.998168 10.453546 -48.165935 10.454741 -48.243700 10.460981 -48.297791 10.454403 -48.277497 10.453508 -48.288798 10.452897 -48.301256 10.452322 -48.308457 10.451831 -48.312405 10.451169 -48.315012 10.449503 -48.316888 10.445974 -48.318144 10.440028 -48.319644 10.434201 -48.323755 10.435897 -48.315700 10.452110 -48.324429 10.445850 -48.319872 10.442518 -48.318374 10.660578 -48.317221 10.977143 -48.315371 -48.312859 9.254298 -48.309253 7.173242 -48.303275 4.535480 -48.294490 1.399515 -48.290691 -2.552683 -48.318142 -7.582253 -48.415238 -14.483839 -48.451202 -24.724934 -48.372358 -37.254236 -48.971575 10.617517 8.428568 8.644992 5.854406 8.631094 2.959913 8.628070 -0.655746 8.651245 -5.176841 8.656356 -11.256629 8.665222 -19.783401 8.671264 -34.122791 8.673951 8.674471 8.674246 8.673919 8.673823 -35.895935 8.673481 -36.165466 8.673895 -36.742380 8.672979 -36.803257 8.674188 -36.773197 8.674383 -36.773088 8.674283 -36.777341 8.674151 -36.779435 8.674176 -36.779599 8.673633 -36.778663 8.671581 -36.777161 8.666814 -36.776237 8.658645 -36.777649 8.653322 -36.776803 8.661108 -36.775830 8.636560 -36.777607 8.663453 -36.775839 8.488924 -36.776987 -36.778598 -36.779585 -36.779739 -36.778473 5.896039 -36.776452 2.996869 -36.779625 -0.618399 -36.811498 -5.198826 -36.780781 -11.248141 -36.380938 -20.112679 -36.636292 -36.058694 6.882494 6.655670 4.411166 6.693614 0.991254 6.709545 -2.969925 6.731099 -8.359106 6.744325 -15.660123 6.786254 -24.895048 6.791009 6.792200 6.792437 6.792466 6.792493 6.792999 -22.689548 6.790652 -25.048883 6.792468 -25.001547 6.794737 -24.842258 6.793643 -24.821448 6.793003 -25.028188 6.792284 -25.030008 6.791652 -25.030990 6.791309 -25.030252 6.789662 -25.028584 6.786284 -25.028080 6.744821 -25.029823 6.744959 -25.035819 6.765500 -25.026060 6.719248 -25.034549 6.632622 -25.030953 6.920544 -25.030210 -25.031202 -25.032358 -25.032813 -25.032655 -25.032198 4.455353 -24.889048 1.045681 -24.927178 -3.032158 -25.001936 -8.371205 -25.025191 -15.697313 -23.097726 -25.412142 4.376328 4.411408 -1.036276 4.455841 -5.838484 4.418772 -12.353925 4.569976 4.589628 4.584966 4.579738 4.579648 4.576408 4.577705 4.582020 4.589780 -16.296876 4.590279 -16.082169 4.589034 -15.866779 4.583929 -16.185131 4.582027 -16.313399 4.585435 -16.318447 4.584034 -16.318895 4.582205 -16.307830 4.582327 -16.309336 4.537518 -16.309836 4.438981 -16.309250 4.546517 -16.309332 4.525598 -16.322198 4.462505 -16.313028 -16.310497 -16.306749 -16.307352 -16.303244 -16.303316 -16.314600 -16.287874 -15.925151 -0.971065 -16.123817 -5.785726 -16.224139 -12.464021 -17.032200 2.199508 -16.973759 1.213385 2.185032 -3.228969 1.336072 -9.146880 1.935164 1.979375 1.965818 1.956169 1.945939 1.949383 1.947438 1.961956 1.962402 1.964715 -10.626657 1.963126 -8.791601 1.958791 -9.763848 1.951086 -9.967658 1.947747 -9.984952 1.951999 -9.979648 1.948057 -9.973946 1.949316 -9.966188 1.936929 -9.958468 1.816077 -9.954738 1.359798 -9.946345 2.344108 -9.962072 1.425650 -9.974206 -9.973425 -9.973765 -9.974475 -9.973933 -9.967178 -9.967588 -9.991054 -9.962211 -8.878986 -3.092036 -10.459681 -9.082798 -1.141217 -5.358374 -0.926589 -1.185292 -1.218902 -1.235509 -1.226257 -1.229196 -1.227702 -1.201506 -1.199904 -1.189623 -1.189380 -1.208212 -4.674667 -1.215754 -5.113676 -1.233656 -5.132689 -1.217881 -5.118152 -1.218798 -5.109265 -1.216187 -5.130088 -1.192928 -5.102818 -1.246296 -5.085137 -1.549377 -5.075922 -0.849337 -5.067945 -5.087449 -5.117374 -5.111790 -5.117510 -5.119121 -5.114319 -5.082793 -5.021452 -5.118101 -5.425488 5.109327 -17.220976 7.106371 -25.305172 11.005140 9.250565 10.393694 7.181914 10.542383 4.558899 10.588876 1.402863 10.581940 -2.535366 10.582545 -7.572377 10.587969 -14.339534 10.591836 -24.652283 10.588127 -38.736128 10.583116 -49.765791 10.582937 10.592149 10.543405 -48.055603 10.593515 -48.764701 10.866526 -48.708736 -48.687109 -48.702574 9.095732 -48.724119 7.255383 -48.733991 4.652717 -48.723652 1.438888 -48.701223 -2.477715 -48.688548 -7.486031 -48.737779 -14.383878 -48.509125 -24.688926 -48.495086 -37.124638 -49.042932 10.623742 -48.543730 8.467910 8.776442 5.957191 8.726028 3.134592 8.743871 -0.485274 8.808517 -5.052053 8.809200 -11.159450 8.814218 -19.622094 8.814425 -33.823516 8.809968 8.809480 8.794865 8.720377 8.775209 -36.923765 8.818828 -37.209361 -37.127025 -37.090635 -37.085884 -37.087539 6.141561 -37.085948 3.163879 -37.082836 -0.509235 -37.095137 -4.987956 -36.982522 -11.120637 -36.384792 -20.102963 -36.500716 -35.946562 7.040838 6.782983 4.815850 6.748704 1.597149 6.883203 -2.596879 7.001754 -8.072251 6.983011 -15.793579 7.023965 -25.135246 6.966433 6.949954 6.971218 6.977500 6.512585 -25.293852 -25.190779 -24.489159 -25.087010 -24.811978 -25.053925 4.671694 -24.808155 1.384813 -24.929449 -2.752432 -24.953778 -8.150510 -25.061571 -15.547201 -22.757778 3.919013 4.501083 -0.262445 4.665444 -5.064400 4.648856 -10.983085 4.801283 4.764582 4.641781 4.701262 4.783280 3.302449 -15.134954 -15.827306 -15.767223 -16.131266 -16.196964 -15.735017 -0.521960 -15.939986 -5.637657 -16.217829 -12.377278 1.399218 2.410310 -2.712358 1.548749 -7.820340 2.322501 2.274804 2.057041 1.606382 2.484310 1.752129 -10.108702 -8.693078 -9.451136 -9.856459 -9.826237 -8.456021 -2.908065 -10.292374 -9.223522 -0.750432 -5.040907 -0.639615 -0.834894 -1.098351 -1.244702 -0.711849 -4.343752 -4.866507 -5.085544 -5.196737 -5.227294 -2.844622 -2.902688 -17.823758 -12.741917 -5.689306 -2.979503 -5.658895 -4.127593 -7.018557 -4.147311 3.024175 2.365895 3.911615 3.993482 4.590364 3.116234 7.931024 6.979802 7.922678 7.916659 8.803315 7.918421 8.801434 7.913129 8.796677 -24.883816 -24.876576 -24.728965 -20.029783 -20.030214 -20.179836 0.509778 2.057105 0.996631 0.978525 -0.688115 0.489517 -20.171668 -16.201688 -20.318412 1.259787 2.114056 2.233478 3.794906 2.909030 -9.922468 -12.766044 -12.813838 -12.763289 -9.919302 -9.873495 11.330356 10.652437 11.619316 11.613213 11.934167 11.332201 -7.932487 -9.806945 -7.231425 -7.118163 -5.456064 -7.825340 -12.788551 -12.612583 -16.075920 -12.837068 -13.017452 -9.967419 -30.440537 -30.615967 -24.910532 -25.038418 -24.887540 -30.587720 -7.439667 -8.835363 -10.710361 -12.421724 -10.763080 -8.905924 -12.748572 -14.600606 -14.663425 -12.769886 -16.086122 -16.196663 -12.849526 5.145531 5.850103 5.152082 4.482699 3.693204 4.477433 6.368597 6.374635 5.703293 -38.418438 -33.888194 -41.618530 -41.620288 -45.767444 -38.431647 7.157973 6.520098 6.521652 7.200490 7.803074 7.806065 -16.308202 -16.212761 -16.213451 -12.825240 -12.894635 -12.892708 -24.880369 -24.879755 -25.046098 -30.586247 -30.588552 -30.416476 -42.933342 -42.972370 -36.772743 -36.648825 -36.619813 -42.843182 -7.048092 -7.240223 -5.333323 -7.996414 -7.806291 -19.926192 -20.175232 -16.077078 -20.259790 -20.012857 1.874062 0.394097 0.393625 -1.254694 0.362341 0.363843 5.306058 5.227791 4.547251 3.878396 10.437508 9.519038 9.537563 9.519105 10.442422 10.427791 8.653001 9.545233 9.561628 -20.316781 -24.879295 -20.178473 -24.882298 -20.316570 -25.044258 8.655240 8.671199 9.562018 10.442303 9.518517 9.538072 8.656217 9.562864 9.545792 -12.337384 -14.073201 -16.301429 -18.419644 -16.307181 -14.070345 -10.476708 -14.075617 -12.332531 -9.636545 -7.418906 -7.236354 -6.758527 -8.907194 -9.083240 11.899228 11.625128 11.891231 -36.500748 -30.298976 -30.300907 -30.415129 -36.640712 -36.637413 -1.834592 -1.658001 -0.686019 0.321750 0.162760 -0.742920 0.453238 -0.556334 -1.602541 -0.699211 0.319925 -30.575744 -30.460693 -53.176186 -53.178774 -53.181790 -51.967717 -51.986506 -51.964556 -1.254304 -3.067487 -3.069396 -3.041932 -1.235384 -1.236381 -37.028115 -37.030617 -37.091226 -43.493825 -43.479377 -43.411106 -24.882176 -24.728239 -30.302505 0.362540 -1.429548 0.248375 -1.272018 0.508408 -1.154985 7.668012 7.688885 8.629440 8.633440 8.617917 7.678131 -3.771887 -2.729066 -1.957412 -1.975738 -3.811216 7.694139 8.544010 7.798414 8.531975 7.679340 8.443417 8.764486 9.678685 9.644136 9.672056 8.763017 -0.695474 0.225776 -0.922549 -1.903587 0.290369 9.683399 10.579229 9.653375 -7.360834 -7.289274 -9.909590 -7.343066 -7.410144 -5.074395 -1.231442 0.394670 -1.256486 -7.310900 -5.097029 -5.055539 11.593059 11.877093 11.611981 11.880033 11.598416 11.881043 9.425539 9.523041 9.410263 10.550252 9.629474 10.561026 -3.051535 -3.059635 -5.098388 -5.119688 -3.059929 3.439755 1.837080 1.712721 11.429495 11.416007 11.402951 -24.880530 -20.287772 -20.160223 -20.228189 -24.808594 -24.972733 2.845102 1.640824 3.361716 3.364298 4.448976 2.856266 -0.614392 0.231089 0.229237 -0.874660 -1.785038 -1.783441 -0.850967 -0.867911 1.059820 0.245642 -1.776997 -3.024066 -4.608862 -4.781229 -5.045665 -3.211541 -3.059486 -2.814371 -20.334313 -20.334787 -16.317896 -20.178069 -20.179016 -24.880879 6.759053 7.720342 7.742361 7.719913 6.760156 6.728760 -3.126701 -5.120648 -4.940556 -12.734605 -12.824849 -9.905705 -12.913276 -12.819588 -16.185296 0.565585 -0.500714 -1.397619 -2.697042 -1.491119 -0.589215 7.843048 8.247354 8.874111 8.248357 7.844861 7.173914 -18.783823 -21.198749 -16.295863 -21.360786 -18.923403 -24.479870 -10.542041 -12.316547 -12.314271 -10.681764 -8.981998 -8.983329 -2.766750 -3.824478 -1.561569 -3.792429 -2.738908 -5.166385 -2.735904 -1.554954 1.912930 0.412909 0.351493 -1.248031 0.401326 0.461982 -8.986436 -10.686071 -7.578280 -12.379132 -8.981564 -10.744739 -10.739420 -14.472350 -12.366079 -8.983167 -7.587623 -10.748429 9.266330 9.664837 8.639322 9.663897 9.267931 10.293001 2.149768 1.582998 3.318615 -1.481879 0.489571 -0.455203 -0.457393 -2.537080 -1.485193 8.873187 9.255955 8.251727 4.273447 5.577642 5.245207 5.666398 4.370950 4.723495 -52.132819 -51.937797 -53.106770 -52.934577 -53.084494 -51.937105 10.110804 10.107674 9.951839 9.953510 10.824109 10.635510 11.606984 10.638058 10.975262 10.106844 10.830174 11.522742 11.555646 11.892729 11.495260 11.468305 10.716444 11.895685 11.876560 11.486675 -48.199471 -42.958386 -42.893915 -36.653195 -42.771087 -42.837160 -42.740641 -42.860992 -48.234999 -43.021333 -42.903433 -36.645327 -20.330570 -24.887810 -25.046923 -53.181702 -51.970466 -51.995742 -51.978001 -53.188962 -53.186457 -52.015851 -48.634631 -52.029932 -52.028238 -48.643689 -52.036518 -48.691578 -30.317792 -24.732354 -30.314774 -24.878600 -30.459131 -48.574599 -51.965214 -48.622554 -20.019563 -20.173560 -20.021310 -48.215105 -42.971478 -42.906575 -42.986070 -48.234081 -48.278040 -36.661520 -42.848398 -42.782742 -41.630918 -47.900717 -44.197611 -47.891660 -41.652174 6.826250 7.838970 7.778996 7.886858 6.867087 6.937612 -30.486967 -30.470580 -30.498503 3.479261 2.805341 3.959090 4.543266 -30.556106 -30.555454 -30.413047 3.329937 3.377955 1.812573 1.758437 3.017748 9.681644 10.576373 9.679218 7.918513 7.877455 7.874102 0.265538 0.693991 0.644680 0.079494 1.630860 0.064102 -0.525356 1.374119 1.409460 2.275564 0.485139 0.447637 10.571942 10.564323 10.571803 11.405903 11.417149 11.405149 1.401298 -0.459405 -1.245483 -3.061821 -3.048675 -5.086235 -3.073518 -3.087184 11.823671 11.407900 11.412562 11.831833 11.836625 11.422367 5.697603 5.656902 6.760224 5.703076 5.742909 4.548933 -3.077653 -3.072256 -1.233268 -16.233263 -16.113249 -16.203044 -12.751638 -12.848259 -12.777805 -4.203609 -2.903792 -3.091259 2.842727 7.251713 6.548237 7.851609 6.545892 7.248001 5.891756 -9.469042 -9.346256 -10.031122 -7.339740 -7.451016 -6.830834 -9.975476 -9.910909 -7.341958 -7.410922 -7.414523 -24.843386 -30.490047 -30.476620 -30.423146 -24.780847 -24.790211 -42.767656 -36.558120 -42.685526 -7.821595 -6.202982 -9.213256 -7.488839 -9.202129 -6.196575 -36.405435 -52.028664 -48.623841 -52.018304 -13.261760 -13.495325 -15.778694 -17.755612 -17.487763 -14.972421 -24.924549 -30.512061 -30.693333 -37.033626 -30.651246 -30.421270 -43.086311 -43.443773 -36.756713 -43.448007 -43.118976 -48.708426 11.420648 11.836058 11.425663 11.821335 11.424071 3.323251 1.918854 3.296157 1.