# vtk DataFile Version 2.0
Test
ASCII
DATASET UNSTRUCTURED_GRID
POINTS 7744 FLOAT
4.000000 0.000000 0.000000
-2.000000 -3.464102 0.000000
4.200000 0.000000 0.000000
-2.100000 -3.637307 0.000000
4.000000 0.000000 6.000000
-2.000000 -3.464102 6.000000
4.200000 0.000000 6.000000
-2.100000 -3.637307 6.000000
4.167238 -0.516032 0.000000
4.071571 -1.024061 0.000000
3.914460 -1.516484 0.000000
3.698271 -1.985933 0.000000
3.426249 -2.425381 0.000000
3.102464 -2.828247 0.000000
2.731755 -3.188490 0.000000
2.319661 -3.500702 0.000000
1.871867 -3.759236 0.000000
1.395436 -3.960014 0.000000
0.898102 -4.100936 0.000000
0.387317 -4.179909 0.000000
-0.129267 -4.195764 0.000000
-0.643916 -4.148264 0.000000
-1.148923 -4.038114 0.000000
-1.636722 -3.866950 0.000000
3.963028 0.538766 0.000000
3.853898 1.067596 0.000000
3.674608 1.576879 0.000000
3.428429 2.057362 0.000000
3.119845 2.500314 0.000000
2.754472 2.897688 0.000000
2.338956 3.242265 0.000000
1.880852 3.527782 0.000000
1.388488 3.749050 0.000000
0.870814 3.902044 0.000000
0.337239 3.983981 0.000000
-0.202538 3.993362 0.000000
-0.738706 3.930011 0.000000
-1.261515 3.795066 0.000000
-1.761460 3.590968 0.000000
-2.229139 3.320953 0.000000
-2.655866 2.990037 0.000000
-3.034136 2.604743 0.000000
-3.357084 2.172085 0.000000
-3.618848 1.699933 0.000000
-3.814677 1.196875 0.000000
-3.941016 0.672059 0.000000
-3.995575 0.135026 0.000000
-3.977362 -0.404463 0.000000
-3.886708 -0.936599 0.000000
-3.725258 -1.451708 0.000000
-3.495942 -1.940426 0.000000
-3.202921 -2.393864 0.000000
-2.851514 -2.803776 0.000000
-2.448099 -3.162700 0.000000
-1.530734 -3.695518 0.000000
-1.035276 -3.863703 0.000000
-0.522105 -3.965779 0.000000
-0.000000 -4.000000 0.000000
0.522105 -3.965779 0.000000
1.035276 -3.863703 0.000000
1.530734 -3.695518 0.000000
2.000000 -3.464102 0.000000
2.435046 -3.173413 0.000000
2.828427 -2.828427 0.000000
3.173413 -2.435046 0.000000
3.464102 -2.000000 0.000000
3.695518 -1.530734 0.000000
3.863703 -1.035276 0.000000
3.965779 -0.522105 0.000000
-2.543258 -3.341786 0.000000
-2.945533 -2.992621 0.000000
-3.300381 -2.595425 0.000000
-3.602121 -2.156579 0.000000
-3.845919 -1.683130 0.000000
-4.027874 -1.182677 0.000000
-4.145071 -0.663251 0.000000
-4.195635 -0.133184 0.000000
-4.178757 0.399019 0.000000
-4.094707 0.924820 0.000000
-3.944830 1.435785 0.000000
-3.731525 1.923715 0.000000
-3.458208 2.380779 0.000000
-3.129255 2.799640 0.000000
-2.749933 3.173571 0.000000
-2.326317 3.496563 0.000000
-1.864953 3.762931 0.000000
-1.373427 3.968297 0.000000
-0.859932 4.109834 0.000000
-0.332711 4.185286 0.000000
0.199776 4.193453 0.000000
0.728988 4.134215 0.000000
1.246436 4.008530 0.000000
1.743818 3.818419 0.000000
2.213159 3.566935 0.000000
2.646927 3.258111 0.000000
3.038165 2.896902 0.000000
3.380593 2.489098 0.000000
3.668713 2.041238 0.000000
3.897895 1.560502 0.000000
4.064452 1.054596 0.000000
4.165701 0.531633 0.000000
3.965779 -0.522105 6.000000
3.863703 -1.035276 6.000000
3.695518 -1.530734 6.000000
3.464102 -2.000000 6.000000
3.173413 -2.435046 6.000000
2.828427 -2.828427 6.000000
2.435046 -3.173413 6.000000
2.000000 -3.464102 6.000000
1.530734 -3.695518 6.000000
1.035276 -3.863703 6.000000
0.522105 -3.965779 6.000000
-0.000000 -4.000000 6.000000
-0.522105 -3.965779 6.000000
-1.035276 -3.863703 6.000000
-1.530734 -3.695518 6.000000
4.165701 0.531633 6.000000
4.064452 1.054596 6.000000
3.897895 1.560502 6.000000
3.668713 2.041238 6.000000
3.380593 2.489098 6.000000
3.038165 2.896902 6.000000
2.646927 3.258111 6.000000
2.213159 3.566935 6.000000
1.743818 3.818419 6.000000
1.246436 4.008530 6.000000
0.728988 4.134215 6.000000
0.199776 4.193453 6.000000
-0.332711 4.185286 6.000000
-0.859932 4.109834 6.000000
-1.373427 3.968297 6.000000
-1.864953 3.762931 6.000000
-2.326317 3.496563 6.000000
-2.749933 3.173571 6.000000
-3.129255 2.799640 6.000000
-3.458208 2.380779 6.000000
-3.731525 1.923715 6.000000
-3.944830 1.435785 6.000000
-4.094707 0.924820 6.000000
-4.178757 0.399019 6.000000
-4.195635 -0.133184 6.000000
-4.145071 -0.663251 6.000000
-4.027874 -1.182677 6.000000
-3.845919 -1.683130 6.000000
-3.602121 -2.156579 6.000000
-3.300381 -2.595425 6.000000
-2.945533 -2.992621 6.000000
-2.543258 -3.341786 6.000000
-1.636722 -3.866950 6.000000
-1.148923 -4.038114 6.000000
-0.643916 -4.148264 6.000000
-0.129267 -4.195764 6.000000
0.387317 -4.179909 6.000000
0.898102 -4.100936 6.000000
1.395436 -3.960014 6.000000
1.871867 -3.759236 6.000000
2.319661 -3.500702 6.000000
2.731755 -3.188490 6.000000
3.102464 -2.828247 6.000000
3.426249 -2.425381 6.000000
3.698271 -1.985933 6.000000
3.914460 -1.516484 6.000000
4.071571 -1.024061 6.000000
4.167238 -0.516032 6.000000
-2.448099 -3.162700 6.000000
-2.851514 -2.803776 6.000000
-3.202921 -2.393864 6.000000
-3.495942 -1.940426 6.000000
-3.725258 -1.451708 6.000000
-3.886708 -0.936599 6.000000
-3.977362 -0.404463 6.000000
-3.995575 0.135026 6.000000
-3.941016 0.672059 6.000000
-3.814677 1.196875 6.000000
-3.618848 1.699933 6.000000
-3.357084 2.172085 6.000000
-3.034136 2.604743 6.000000
-2.655866 2.990037 6.000000
-2.229139 3.320953 6.000000
-1.761460 3.590968 6.000000
-1.261515 3.795066 6.000000
-0.738706 3.930011 6.000000
-0.202538 3.993362 6.000000
0.337239 3.983981 6.000000
0.870814 3.902044 6.000000
1.388488 3.749050 6.000000
1.880852 3.527782 6.000000
2.338956 3.242265 6.000000
2.754472 2.897688 6.000000
3.119845 2.500314 6.000000
3.428429 2.057362 6.000000
3.674608 1.576879 6.000000
3.853898 1.067596 6.000000
3.963028 0.538766 6.000000
-2.000000 -3.464102 5.454545
-2.000000 -3.464102 4.909091
-2.000000 -3.464102 4.363636
-2.000000 -3.464102 3.818182
-2.000000 -3.464102 3.272727
-2.000000 -3.464102 2.727273
-2.000000 -3.464102 2.181818
-2.000000 -3.464102 1.636364
-2.000000 -3.464102 1.090909
-2.000000 -3.464102 0.545455
4.000000 0.000000 0.545455
4.000000 0.000000 1.090909
4.000000 0.000000 1.636364
4.000000 0.000000 2.181818
4.000000 0.000000 2.727273
4.000000 0.000000 3.272727
4.000000 0.000000 3.818182
4.000000 0.000000 4.363636
4.000000 0.000000 4.909091
4.000000 0.000000 5.454545
-2.100000 -3.637307 0.545455
-2.100000 -3.637307 1.090909
-2.100000 -3.637307 1.636364
-2.100000 -3.637307 2.181818
-2.100000 -3.637307 2.727273
-2.100000 -3.637307 3.272727
-2.100000 -3.637307 3.818182
-2.100000 -3.637307 4.363636
-2.100000 -3.637307 4.909091
-2.100000 -3.637307 5.454545
4.200000 0.000000 5.454545
4.200000 0.000000 4.909091
4.200000 0.000000 4.363636
4.200000 0.000000 3.818182
4.200000 0.000000 3.272727
4.200000 0.000000 2.727273
4.200000 0.000000 2.181818
4.200000 0.000000 1.636364
4.200000 0.000000 1.090909
4.200000 0.000000 0.545455
-3.899627 -0.854677 2.778919
2.727140 2.917254 3.263483
-3.760756 -1.338549 2.730044
3.573719 1.777718 3.714462
3.976021 0.365850 5.632614
3.908890 0.808105 5.557726
3.970879 0.444301 5.185006
3.771386 1.307235 5.517662
3.967899 0.489767 4.654756
3.556465 1.812705 5.530378
3.968206 0.485079 4.100611
3.276741 2.280405 5.532319
3.968715 0.477313 3.549009
2.939975 2.701232 5.532319
3.969105 0.471366 3.000000
2.549606 3.072947 5.532319
3.969105 0.471366 2.454545
2.112720 3.388785 5.532319
3.968931 0.474016 1.900450
1.637247 3.642992 5.532319
3.968181 0.485461 1.344964
1.131820 3.830931 5.532319
3.971004 0.442396 0.819987
0.605617 3.949168 5.532319
3.976247 0.362395 0.366702
0.068196 3.995530 5.532319
-0.470679 3.969150 5.532319
3.909661 0.804230 0.445856
-1.001214 3.870479 5.532319
3.770309 1.310408 0.490396
-1.513761 3.701280 5.532319
3.555349 1.814968 0.484332
-1.998998 3.464596 5.532319
3.276054 2.281434 0.475772
-2.446841 3.163069 5.532319
2.938501 2.702912 0.467681
-2.849852 2.803996 5.532319
2.547925 3.074421 0.467681
-3.200803 2.394054 5.532319
2.110861 3.390027 0.467681
-3.493340 1.940711 5.532319
1.635242 3.643980 0.467681
-3.722170 1.452221 5.532319
1.129703 3.831650 0.467681
-3.883158 0.937473 5.532319
0.603424 3.949604 0.467681
-3.973401 0.405829 5.532319
0.065965 3.995676 0.467681
-3.991280 -0.133046 5.532319
-0.472910 3.969004 0.467681
-3.936489 -0.669357 5.532319
-1.003406 3.870043 0.467681
-3.810041 -1.193360 5.532319
-1.515878 3.700561 0.467681
-3.614248 -1.695534 5.532319
-2.000929 3.463481 0.467681
-3.348241 -2.173397 5.524619
-2.448522 3.161595 0.467681
-3.018765 -2.611388 5.513001
-2.851326 2.802316 0.467681
-2.652445 -2.982759 5.554183
-3.202045 2.392195 0.467681
-2.308156 -3.258198 5.629787
-3.494329 1.938706 0.467681
-3.722888 1.450104 0.467681
-2.368628 -3.217792 5.180013
-3.883594 0.935281 0.467681
-2.406677 -3.192369 4.652753
-3.973547 0.403599 0.467681
-2.392768 -3.201663 4.090909
-3.991134 -0.135276 0.467681
-2.396331 -3.199282 3.547807
-3.936053 -0.671550 0.467681
-2.392768 -3.201663 3.000000
-3.809323 -1.195477 0.467681
-2.392768 -3.201663 2.454545
-3.612463 -1.699152 0.473481
-2.393611 -3.201099 1.901962
-3.347709 -2.174194 0.482288
-2.403514 -3.194482 1.347544
-3.018909 -2.611224 0.489207
-2.370811 -3.216333 0.815600
-2.654969 -2.980546 0.442375
-2.307691 -3.258509 0.369537
3.871723 0.994958 4.998412
3.680172 1.561852 5.066226
3.878420 0.961291 4.383916
3.431334 2.049040 5.061113
3.878673 0.960017 3.831589
3.121391 2.494366 5.060745
3.883674 0.934879 3.275251
2.752614 2.894913 5.067312
3.884435 0.931049 2.727273
2.337229 3.238772 5.067312
3.883205 0.937233 2.170647
1.879416 3.523567 5.067312
3.883937 0.933555 1.615568
1.387506 3.744137 5.067312
3.872455 0.991277 1.008790
0.870444 3.896490 5.067312
0.337633 3.977870 5.067312
-0.201242 3.986810 5.067312
-0.736386 3.923156 5.067312
-1.258075 3.788073 5.067312
3.676677 1.568940 0.969186
-1.756828 3.584021 5.067312
3.427905 2.054172 0.965604
-2.223580 3.314710 5.067312
3.113403 2.503474 0.942564
-2.649849 2.985036 5.067312
2.750933 2.896387 0.932688
-3.027886 2.600988 5.067312
2.335371 3.240014 0.932688
-3.350816 2.169544 5.067312
1.877412 3.524556 0.932688
-3.612765 1.698541 5.067312
1.385389 3.744856 0.932688
-3.808963 1.196535 5.067312
0.868252 3.896927 0.932688
-3.935835 0.672646 5.067312
0.335403 3.978017 0.932688
[...]
POINT_DATA 7744
SCALARS solution float 1
LOOKUP_TABLE default
19.061981 19.062068 19.055309 19.054473 -79.645607 -79.670901 -79.560331 -79.568194 19.076893 19.078007 19.083011 19.085330 19.084810 19.083464 19.082694 19.082315 19.082289 19.082620 19.083376 19.085244 19.086894 19.080731 19.071752 19.078497 19.078804 19.080149 19.092282 19.096743 19.096165 19.095295 19.094803 19.094683 19.094545 19.094317 19.094009 19.093645 19.093283 19.093151 19.093311 19.092936 19.093156 19.093335 19.093680 19.094037 19.094340 19.094561 19.094694 19.094812 19.095414 19.096940 19.098400 19.095403 19.083694 19.077076 19.075045 19.073920 19.083184 19.087481 19.084963 19.083465 19.082819 19.082636 19.082880 19.083566 19.084829 19.085532 19.084365 19.075192 19.078287 19.076944 19.081666 19.093283 19.098024 19.097051 19.095537 19.094602 19.094429 19.094374 19.094255 19.094056 19.093781 19.093455 19.093150 19.093021 19.092750 19.091885 19.093020 19.093099 19.093420 19.093755 19.094036 19.094241 19.094365 19.094426 19.094587 19.095267 19.096100 19.095930 19.089654 19.077735 19.081976 -79.695587 -79.603516 -79.603414 -79.601893 -79.602183 -79.603655 -79.606263 -79.607251 -79.606652 -79.604999 -79.606169 -79.608778 -79.605742 -79.642155 -79.683775 -79.686849 -79.611427 -79.563681 -79.546143 -79.530682 -79.523580 -79.525228 -79.529702 -79.533256 -79.535051 -79.535400 -79.534938 -79.534288 -79.533879 -79.534224 -79.528897 -79.509563 -79.533783 -79.533666 -79.534110 -79.534931 -79.535471 -79.535049 -79.532900 -79.528819 -79.524021 -79.521781 -79.526604 -79.538135 -79.553277 -79.602612 -79.679503 -79.709441 -79.649253 -79.605533 -79.609239 -79.607280 -79.604989 -79.606083 -79.608003 -79.607843 -79.605492 -79.603057 -79.602994 -79.605061 -79.603187 -79.681712 -79.693697 -79.670186 -79.591200 -79.548993 -79.533306 -79.523155 -79.521031 -79.524495 -79.529016 -79.531812 -79.532510 -79.531957 -79.531039 -79.530493 -79.531091 -79.547271 -79.533083 -79.531270 -79.530703 -79.531184 -79.531951 -79.532486 -79.531968 -79.529691 -79.525691 -79.522608 -79.526651 -79.541461 -79.560112 -79.601732 -79.673285 -76.430972 -24.588606 16.984828 19.742912 19.787923 19.729509 19.654665 19.565940 19.456100 19.299432 19.296812 19.453867 19.564578 19.653630 19.728786 19.789904 19.713484 16.949447 -24.455243 -76.433514 19.297193 19.456070 19.566149 19.654572 19.729320 19.789813 19.695816 17.108121 -24.532073 -76.349083 -76.315682 -24.402780 17.194946 19.745448 19.787618 19.728993 19.653768 19.564395 19.454059 19.294756 19.725018 19.782194 19.717903 19.787698 -78.667497 -77.685581 -62.371303 -77.040256 7.364067 -77.028777 19.130761 -76.926459 19.792861 -76.860297 19.760336 -76.862906 19.691037 -76.890455 19.607016 -76.911963 19.505492 -76.921575 19.381348 -76.921094 19.219700 -76.914881 -76.906360 19.244487 -76.897447 19.257408 -76.884920 19.257659 -76.833506 19.256394 -76.886795 19.253276 -76.895257 19.252917 -76.904306 19.252673 -76.913936 19.252680 -76.920962 19.252819 -76.921163 19.253055 -76.909260 19.253367 -76.883942 19.253730 -76.853712 19.254139 -76.848854 19.254320 -76.902833 19.255171 -76.918987 19.254408 -76.935627 19.254092 -77.609345 19.253699 -78.642581 19.253335 19.253028 -61.809327 19.252800 7.560324 19.252670 19.166491 19.252675 19.802842 19.252976 19.760217 19.253574 19.690590 19.255663 19.606604 19.256739 19.504551 19.256304 19.377613 19.241302 19.217774 -35.784157 -43.784332 17.032063 -40.958042 19.694952 -39.725108 19.784631 -40.511405 19.723988 -40.737362 19.644687 -41.031658 19.550069 -41.216362 19.417012 -41.316689 -41.371287 -41.424333 -41.479215 -41.533661 19.400679 -41.759451 19.400941 -41.722523 19.396970 -41.554921 19.395011 -41.484137 19.395010 -41.430170 19.394971 -41.384701 19.394954 -41.324275 19.394958 -41.206573 19.394971 -40.982809 19.394990 -40.666312 19.395019 -40.471437 19.394995 -40.676287 19.394933 -39.315713 19.394913 -41.022623 19.394986 -34.173102 19.395008 19.394983 19.394966 19.394956 19.394954 17.212400 19.394970 19.748067 19.395037 19.783618 19.395099 19.723104 19.395290 19.643189 19.399305 19.547378 19.398729 19.414613 9.832694 12.406306 19.266692 12.931416 19.786824 12.893326 19.753224 12.377158 19.681065 12.286792 19.592231 12.226190 19.500190 12.190869 12.193401 12.197251 12.206958 12.212236 12.230063 19.522778 12.119891 19.502374 12.275714 19.503386 12.223022 19.502198 12.214237 19.500815 12.203316 19.500791 12.196156 19.500803 12.201602 19.500837 12.233324 19.500879 12.303961 19.500931 12.192602 19.500930 12.293172 19.500934 12.776900 19.500736 13.682197 19.500851 10.627904 19.500911 19.500896 19.500851 19.500810 19.500794 19.500795 19.292605 19.500858 19.787866 19.500735 19.752411 19.500345 19.680098 19.499695 19.590971 19.519306 19.497563 19.308547 19.310315 19.780154 19.306555 19.716135 19.289737 19.634331 19.266005 19.257785 19.253930 19.250692 19.245417 19.240541 19.234708 19.227800 19.354232 19.596476 19.243014 19.591887 19.250203 19.588592 19.242382 19.587637 19.247051 19.587365 19.253458 19.587129 19.259850 19.587433 19.267795 19.587578 19.290236 19.587431 19.278203 19.587727 19.299450 19.587529 19.331390 19.587745 19.587460 19.587486 19.587566 19.587145 19.587446 19.586820 19.585857 19.585434 19.780059 19.586105 19.714752 19.590225 19.628696 19.587263 19.789144 19.582942 19.780451 19.785644 19.752885 19.795190 19.683070 19.789100 19.787479 19.787651 19.787162 19.787330 19.787466 19.787409 19.787069 19.788478 19.796615 19.674914 19.796661 19.664483 19.789807 19.661422 19.788693 19.661267 19.788806 19.661243 19.788481 19.661202 19.787842 19.661412 19.788389 19.661440 19.796092 19.661419 19.792153 19.661343 19.785385 19.661459 19.661427 19.661024 19.660951 19.660917 19.661085 19.661112 19.660387 19.656947 19.657104 19.754403 19.660757 19.672323 19.753297 19.777316 19.777749 19.777775 19.777614 19.777284 19.777677 19.777685 19.777573 19.777844 19.778330 19.777583 19.730910 19.777084 19.725490 19.776806 19.725090 19.777997 19.724907 19.778317 19.724321 19.777187 19.724635 19.777597 19.725513 19.775955 19.725288 19.780030 19.725198 19.725313 19.725362 19.724918 19.724077 19.724236 19.724445 19.724832 19.724627 19.723916 19.711388 19.585407 8.238754 19.494396 19.770369 -78.578229 -62.738101 -77.007616 7.093508 -77.430021 19.268908 -77.519919 19.801860 -77.510358 19.761429 -77.521812 19.692408 -77.542647 19.610081 -77.540553 19.507379 -77.517753 19.381644 -77.506601 19.216905 -77.513023 -77.423619 -77.389593 19.253834 -78.217951 19.245637 19.248779 19.248302 -56.163920 19.248113 7.811229 19.248341 19.292051 19.248333 19.791044 19.248120 19.760482 19.248225 19.691184 19.248289 19.606469 19.252462 19.507693 19.244384 19.392015 19.225362 -77.813372 19.243405 -33.307466 -44.764152 17.044534 -45.758115 19.738125 -48.276619 19.787716 -48.016734 19.724419 -48.063903 19.644820 -48.172577 19.551243 -48.064111 19.419805 -47.960868 -48.092683 -43.599135 -45.956685 -46.030498 19.389691 19.389626 19.390743 19.390549 19.390300 16.302769 19.390201 19.680722 19.390320 19.786493 19.390544 19.724886 19.390555 19.644401 19.397791 19.545047 19.394144 19.399838 9.666428 12.548847 19.327459 10.867175 19.795615 9.622000 19.755726 10.203061 19.682718 10.204081 19.587995 9.512067 19.495402 10.146052 9.602363 9.765880 14.627654 19.494076 19.496233 19.504165 19.499838 19.500265 19.225521 19.502911 19.796407 19.502672 19.756490 19.502412 19.682625 19.502330 19.594041 19.520219 19.320067 19.092563 19.782349 19.122369 19.721235 19.137541 19.643961 19.054847 19.109823 19.105164 19.127588 19.613633 19.597336 19.589731 19.590606 19.586720 19.591719 19.785317 19.589796 19.717446 19.588352 19.629978 19.777485 19.780989 19.757805 19.776247 19.686393 19.784019 19.779046 19.781128 19.784486 19.788214 19.657945 19.677717 19.666389 19.662142 19.680793 19.755327 19.656260 19.674213 19.785125 19.725616 19.784093 19.781486 19.774699 19.785118 19.734600 19.725736 19.722571 19.723405 19.755525 19.754689 19.566021 19.175774 19.720395 19.751698 19.754076 19.788443 -78.792628 -62.875392 -77.004833 7.278830 -77.000923 19.307882 -77.016906 19.791909 -76.956720 19.759973 -76.949395 19.690953 -76.973303 19.606919 -77.000373 19.504459 -77.016675 19.378109 -77.020453 19.214890 -77.015414 -77.006230 19.240648 -76.996426 19.254968 -76.988912 19.254173 -76.988376 19.252634 -77.019283 19.250124 -76.986253 19.249702 -76.991028 19.249239 -76.998602 19.249139 -77.007690 19.249210 -77.016017 19.249383 -77.020986 19.249646 -77.018350 19.249986 -77.005160 19.250385 -76.981142 19.250807 -76.958630 19.251157 -76.971464 19.249388 -77.039886 19.251044 -77.064335 19.250866 -77.114586 19.250423 -77.797403 19.250024 -78.789846 19.249679 19.249407 -63.049154 19.249225 7.015601 19.249145 19.302857 19.249227 19.802572 19.249578 19.760578 19.249710 19.691340 19.248924 19.606966 19.247627 19.505071 19.245640 19.393538 19.233902 -77.709133 -33.116945 -42.463432 16.901987 -41.665045 19.711226 -41.388666 19.786156 -42.174809 19.723267 -42.231154 19.643594 -42.504700 19.548722 -42.749823 19.415770 -42.900121 -42.971458 -43.009130 -43.041596 -43.085093 19.398934 -43.142335 19.397462 -43.174577 19.393307 -43.052871 19.392768 -43.123248 19.392778 -43.080592 19.392641 -43.039203 19.392575 -42.998853 19.392529 -42.962582 19.392488 -42.903556 19.392446 -42.781902 19.392409 -42.567846 19.392372 -42.296320 19.392283 -42.227953 19.392026 -42.741340 19.392053 -41.819908 19.392287 -43.037651 19.392376 -35.590427 19.392407 19.392444 19.392485 19.392524 19.392569 16.877403 19.392640 19.742964 19.392715 19.786281 19.392659 19.723266 19.392998 19.644128 19.395712 19.545986 19.392588 19.400114 10.260847 12.729912 19.230533 12.360729 19.798484 12.289968 19.753786 12.140684 19.680198 12.093293 19.591856 11.670486 19.498102 11.618223 11.601837 11.606597 11.622944 11.640502 11.654620 19.518883 11.557020 19.497072 11.796830 19.497927 11.662927 19.499754 11.643138 19.500088 11.631243 19.498167 11.615453 19.498146 11.604847 19.498179 11.599926 19.498221 11.615771 19.498282 11.662683 19.498364 12.083388 19.498406 12.031557 19.498355 11.789639 19.498521 12.166934 19.498394 12.995795 19.498439 9.850118 19.498395 19.498307 19.498242 19.498180 19.498125 19.498114 19.203141 19.499446 19.797395 19.498968 19.753366 19.497870 19.680237 19.497270 19.591556 19.515181 19.493884 19.331907 19.311802 19.780328 19.284065 19.714152 19.299426 19.630456 19.274522 19.263143 19.259235 19.255037 19.249919 19.246564 19.228669 19.215540 19.110514 19.585371 19.221807 19.587789 19.234649 19.590217 19.241352 19.586706 19.246867 19.585160 19.250817 19.585025 19.254894 19.584959 19.256947 19.585107 19.260908 19.585091 19.278222 19.585068 19.308889 19.585078 19.304558 19.585069 19.316638 19.585026 19.304327 19.585091 19.585048 19.585031 19.585053 19.585116 19.585149 19.585103 19.585499 19.589520 19.780848 19.587163 19.714874 19.586184 19.629119 19.576832 19.787245 19.577607 19.785972 19.789192 19.750495 19.781085 19.670601 19.791529 19.791854 19.790579 19.788674 19.788388 19.789036 19.786765 19.781671 19.784195 19.790240 19.651923 19.788615 19.674789 19.788731 19.662216 19.789038 19.659701 19.789369 19.659580 19.789735 19.659690 19.789610 19.659813 19.790000 19.659909 19.790135 19.659976 19.789433 19.660045 19.786467 19.660173 19.795194 19.660009 19.792868 19.659790 19.660028 19.660012 19.659963 19.659939 19.659983 19.659895 19.659432 19.659665 19.673577 19.751949 19.653935 19.671433 19.779369 19.720627 19.783173 19.779290 19.778197 19.778092 19.777642 19.777729 19.778588 19.778739 19.778741 19.778874 19.778609 19.778350 19.730156 19.778272 19.724244 19.778007 19.724039 19.778285 19.724247 19.778304 19.724364 19.778349 19.724055 19.778567 19.724414 19.777905 19.724676 19.773805 19.724775 19.784608 19.724874 19.724609 19.724177 19.724216 19.724046 19.724183 19.724231 19.724614 19.725402 19.724059 19.719931 18.898771 19.575806 7.606304 19.495167 -78.502137 -62.369963 -77.023702 6.998812 -77.470542 19.156608 -77.573113 19.803198 -77.565909 19.760688 -77.576642 19.691184 -77.598988 19.608382 -77.611783 19.504666 -77.602103 19.377914 -77.580233 19.209734 -77.578650 -77.576625 -77.461209 19.255445 -77.646804 19.243001 -78.388770 19.244864 19.245089 19.244887 -57.798216 19.244957 5.954896 19.245187 19.093122 19.244964 19.793187 19.244877 19.761416 19.245301 19.692637 19.245475 19.608269 19.248349 19.505641 19.242960 19.394959 19.231394 -77.810682 19.242950 -33.928120 -47.221575 16.850293 -45.059904 19.737886 -45.950223 19.785116 -48.605960 19.724984 -48.604721 19.645103 -48.752702 19.550441 -48.733947 19.419113 -48.634785 -48.692888 -48.165005 -45.022052 -47.200152 19.390660 -49.089469 19.388978 19.389776 19.389823 19.389620 19.389404 16.145201 19.389410 19.681539 19.389570 19.785818 19.389870 19.725975 19.391313 19.645746 19.395905 19.546130 19.393948 19.401230 8.500130 11.857709 19.013249 12.391022 19.787225 10.941587 19.759026 9.467714 19.684280 9.850601 19.590966 9.355293 19.496727 10.070928 10.133713 9.817698 9.477247 14.323291 19.495961 19.497560 19.504909 19.499345 19.502018 19.499930 19.119221 19.502043 19.792192 19.500506 19.757002 19.499581 19.683268 19.497907 19.593216 19.518873 19.442385 19.171980 19.784195 19.109269 19.724698 19.129325 19.646781 19.060542 19.086881 19.152734 19.109638 19.083428 19.439476 19.597652 19.590176 19.590623 19.586723 19.585843 19.590693 19.780741 19.589043 19.716771 19.586689 19.630107 19.788884 19.784324 19.757693 19.778526 19.687479 19.791195 19.783524 19.788063 19.784090 19.782483 19.780157 19.657873 19.676389 19.666880 19.661721 19.661919 19.679808 19.754170 19.655640 19.669284 19.784395 19.725321 19.786411 19.782683 19.778732 19.777568 19.785184 19.735114 19.727792 19.725003 19.723348 19.722866 19.756134 19.755201 19.568961 19.625799 19.715873 19.754423 19.716144 19.737604 19.697725 19.737800 19.746980 19.753180 19.557955 19.510208 19.246761 19.734393 -13.548560 9.615693 -13.261227 -13.079416 -48.138904 -13.190191 -47.803845 -13.066190 -48.131630 19.499441 19.499654 19.500817 19.546038 19.546010 19.544534 19.797886 19.794106 19.802704 19.801161 19.785307 19.799016 19.544645 19.586171 19.543217 19.795033 19.795922 19.789355 19.630428 19.752264 19.660416 19.625397 19.624881 19.625465 19.660386 19.660973 -79.293034 -77.947897 -79.507249 -79.566465 -79.617387 -79.234239 19.685923 19.662209 19.695183 19.696589 19.719275 19.687323 19.625259 19.627440 19.587841 19.624720 19.622577 19.659588 19.449401 19.447675 19.498397 19.497288 19.498754 19.448439 19.692327 19.673882 19.650274 19.629601 19.649708 19.672936 19.625479 19.604078 19.603255 19.625332 19.587505 19.586354 19.624430 18.846153 17.073944 18.813364 19.410297 19.627278 19.407632 14.900410 14.866477 17.990897 19.384180 19.426425 19.351087 19.350824 19.295701 19.384552 7.345529 14.055854 14.020061 5.389370 -9.716763 -9.638785 19.584910 19.586139 19.586053 19.624681 19.623887 19.623909 19.499441 19.499462 19.497944 19.448458 19.448459 19.450000 19.330905 19.330576 19.393301 19.394285 19.394425 19.331917 19.697361 19.694660 19.720822 19.684677 19.687374 19.546633 19.544126 19.587806 19.543363 19.545920 19.797619 19.796281 19.797368 19.777975 19.795736 19.796395 18.632198 18.836850 19.351326 19.636940 -76.954143 -67.458081 -67.828080 -67.483489 -77.084729 -77.087538 -41.875659 -67.975962 -68.314842 19.543186 19.499534 19.544539 19.499437 19.543122 19.498004 -42.311357 -42.525115 -68.351665 -77.072876 -67.564028 -67.842529 -42.416212 -68.370806 -67.971805 19.631839 19.611894 19.587379 19.566079 19.587300 19.611827 19.654647 19.611948 19.631913 19.664480 19.693337 19.695675 19.701767 19.673736 19.671518 -79.696030 -79.499211 -79.724039 19.395384 19.450977 19.450908 19.450012 19.393913 19.393860 19.769639 19.772068 19.782744 19.794343 19.795863 19.783692 19.798187 19.786700 19.773272 19.784788 19.796428 19.448526 19.449582 19.086778 19.087726 19.084537 19.141090 19.140813 19.142115 19.778345 19.752822 19.752789 19.753343 19.778122 19.778111 19.390140 19.390109 19.389799 19.327145 19.327038 19.327833 19.499434 19.500843 19.450954 19.796997 19.775688 19.796619 19.778331 19.795727 19.780124 -6.260812 -6.893225 -41.697531 -41.481268 -40.929890 -6.503520 19.743201 19.758148 19.768980 19.769053 19.742841 -6.400371 -37.975080 -9.784510 -37.383576 -6.049767 -33.646323 -46.420640 -70.537641 -69.927528 -70.406956 -46.526404 19.785001 19.793225 19.782838 19.769716 19.794058 -70.627983 -77.572156 -70.096790 19.693582 19.694568 19.660696 19.693925 19.692996 19.724796 19.777822 19.796617 19.778311 19.694386 19.724274 19.724983 -79.520782 -79.730299 -79.555197 -79.714393 -79.542374 -79.685621 -65.779888 -67.876194 -65.499760 -77.688076 -69.729928 -77.633718 19.753196 19.753045 19.724434 19.724067 19.752923 19.667303 19.793937 19.795373 -79.355822 -79.309264 -79.301620 19.499460 19.543462 19.544761 19.544110 19.500147 19.498624 19.764545 19.794247 19.698694 19.684596 19.253764 19.752637 19.785669 19.794677 19.796079 19.782505 19.770809 19.770912 19.781777 19.783041 19.793257 19.795897 19.770649 19.753346 19.731234 19.728906 19.725295 19.750575 19.752851 19.756378 19.542963 19.542955 19.584927 19.544534 19.544623 19.499712 11.516158 -7.296325 -8.005490 -7.445341 11.881778 11.966447 19.751923 19.724266 19.726808 19.625792 19.624755 19.660423 19.623723 19.624788 19.586544 19.796248 19.787033 19.775426 19.757839 19.774602 19.785670 -10.937918 -24.964903 -50.305878 -25.611886 -10.826135 7.111879 19.560287 19.537581 19.587147 19.536046 19.558863 19.506217 19.653725 19.631904 19.632044 19.651341 19.672960 19.672946 19.757148 19.742479 19.774218 19.742861 19.757617 19.723660 19.757431 19.774520 19.797343 19.796819 19.795883 19.778036 19.796192 19.796511 19.672982 19.651157 19.691212 19.631275 19.673104 19.650541 19.650595 19.607025 19.631371 19.673058 19.691210 19.650500 -62.350241 -70.093340 -41.362836 -70.185138 -62.216281 -76.370222 19.789004 19.795252 19.703770 19.775159 19.796784 19.788768 19.789020 19.760623 19.775080 -50.128741 -62.630546 -26.279362 19.497607 18.144689 18.839072 17.994495 19.400004 19.138482 19.124674 19.127861 19.075001 19.077348 19.077498 19.126537 -75.179675 -75.159530 -73.968867 -73.966609 -78.387272 -77.895125 -79.569356 -77.951610 -78.741639 -75.042160 -78.459062 -79.474466 -79.419564 -79.667618 -79.348757 -79.414536 -78.059686 -79.650168 -79.709817 -79.379803 19.249988 19.330314 19.331094 19.394069 19.332545 19.331644 19.333000 19.331406 19.252548 19.329778 19.330918 19.393877 19.543008 19.499409 19.498064 19.085218 19.141258 19.140238 19.140716 19.083974 19.086465 19.139822 19.245755 19.139306 19.139569 19.245118 19.138820 19.242134 19.450833 19.500759 19.450789 19.499709 19.449599 19.245511 19.141044 19.244824 19.546104 19.544553 19.546116 19.249824 19.330178 19.330927 19.330372 19.250934 19.247044 19.393971 19.331542 19.332407 19.348836 19.253150 19.315636 19.253700 19.349136 11.453594 -10.757458 -8.665158 -12.087853 10.710236 10.098340 19.449146 19.449347 19.449105 19.683815 19.671756 19.599330 19.572782 19.448638 19.448767 19.450004 19.705643 19.695951 19.798389 19.796552 19.742480 -70.533890 -77.656199 -70.584311 -13.220504 -11.914887 -11.878856 19.796075 19.799766 19.799542 19.793447 19.802064 19.792835 19.786087 19.793239 19.796867 19.787354 19.796850 19.797679 -77.623322 -77.686961 -77.583758 -79.306724 -79.348272 -79.306976 19.798449 19.787461 19.778109 19.753055 19.753183 19.724579 19.752854 19.752622 -79.662450 -79.310811 -79.329535 -79.628521 -79.622510 -79.332051 17.910873 18.031865 11.586699 17.875785 17.788712 19.238492 19.752812 19.752727 19.778155 19.585926 19.587207 19.586197 19.625563 19.624442 19.625265 19.736528 19.754261 19.752474 19.737474 4.211587 13.884133 -10.839546 13.885496 4.158552 16.968802 19.665919 19.667790 19.658919 19.693620 19.691954 19.700463 19.659704 19.660532 19.693854 19.692912 19.692892 19.499772 19.449442 19.449537 19.450040 19.500401 19.500271 19.332807 19.395054 19.333922 19.687528 19.709382 19.669643 19.692549 19.669873 19.709469 19.396495 19.139045 19.244773 19.139883 19.619346 19.616416 19.590577 19.569261 19.57