# vtk DataFile Version 2.0
Test
ASCII
DATASET UNSTRUCTURED_GRID
POINTS 7744 FLOAT
4.000000 0.000000 0.000000
-2.000000 -3.464102 0.000000
4.200000 0.000000 0.000000
-2.100000 -3.637307 0.000000
4.000000 0.000000 6.000000
-2.000000 -3.464102 6.000000
4.200000 0.000000 6.000000
-2.100000 -3.637307 6.000000
4.167238 -0.516032 0.000000
4.071571 -1.024061 0.000000
3.914460 -1.516484 0.000000
3.698271 -1.985933 0.000000
3.426249 -2.425381 0.000000
3.102464 -2.828247 0.000000
2.731755 -3.188490 0.000000
2.319661 -3.500702 0.000000
1.871867 -3.759236 0.000000
1.395436 -3.960014 0.000000
0.898102 -4.100936 0.000000
0.387317 -4.179909 0.000000
-0.129267 -4.195764 0.000000
-0.643916 -4.148264 0.000000
-1.148923 -4.038114 0.000000
-1.636722 -3.866950 0.000000
3.963028 0.538766 0.000000
3.853898 1.067596 0.000000
3.674608 1.576879 0.000000
3.428429 2.057362 0.000000
3.119845 2.500314 0.000000
2.754472 2.897688 0.000000
2.338956 3.242265 0.000000
1.880852 3.527782 0.000000
1.388488 3.749050 0.000000
0.870814 3.902044 0.000000
0.337239 3.983981 0.000000
-0.202538 3.993362 0.000000
-0.738706 3.930011 0.000000
-1.261515 3.795066 0.000000
-1.761460 3.590968 0.000000
-2.229139 3.320953 0.000000
-2.655866 2.990037 0.000000
-3.034136 2.604743 0.000000
-3.357084 2.172085 0.000000
-3.618848 1.699933 0.000000
-3.814677 1.196875 0.000000
-3.941016 0.672059 0.000000
-3.995575 0.135026 0.000000
-3.977362 -0.404463 0.000000
-3.886708 -0.936599 0.000000
-3.725258 -1.451708 0.000000
-3.495942 -1.940426 0.000000
-3.202921 -2.393864 0.000000
-2.851514 -2.803776 0.000000
-2.448099 -3.162700 0.000000
-1.530734 -3.695518 0.000000
-1.035276 -3.863703 0.000000
-0.522105 -3.965779 0.000000
-0.000000 -4.000000 0.000000
0.522105 -3.965779 0.000000
1.035276 -3.863703 0.000000
1.530734 -3.695518 0.000000
2.000000 -3.464102 0.000000
2.435046 -3.173413 0.000000
2.828427 -2.828427 0.000000
3.173413 -2.435046 0.000000
3.464102 -2.000000 0.000000
3.695518 -1.530734 0.000000
3.863703 -1.035276 0.000000
3.965779 -0.522105 0.000000
-2.543258 -3.341786 0.000000
-2.945533 -2.992621 0.000000
-3.300381 -2.595425 0.000000
-3.602121 -2.156579 0.000000
-3.845919 -1.683130 0.000000
-4.027874 -1.182677 0.000000
-4.145071 -0.663251 0.000000
-4.195635 -0.133184 0.000000
-4.178757 0.399019 0.000000
-4.094707 0.924820 0.000000
-3.944830 1.435785 0.000000
-3.731525 1.923715 0.000000
-3.458208 2.380779 0.000000
-3.129255 2.799640 0.000000
-2.749933 3.173571 0.000000
-2.326317 3.496563 0.000000
-1.864953 3.762931 0.000000
-1.373427 3.968297 0.000000
-0.859932 4.109834 0.000000
-0.332711 4.185286 0.000000
0.199776 4.193453 0.000000
0.728988 4.134215 0.000000
1.246436 4.008530 0.000000
1.743818 3.818419 0.000000
2.213159 3.566935 0.000000
2.646927 3.258111 0.000000
3.038165 2.896902 0.000000
3.380593 2.489098 0.000000
3.668713 2.041238 0.000000
3.897895 1.560502 0.000000
4.064452 1.054596 0.000000
4.165701 0.531633 0.000000
3.965779 -0.522105 6.000000
3.863703 -1.035276 6.000000
3.695518 -1.530734 6.000000
3.464102 -2.000000 6.000000
3.173413 -2.435046 6.000000
2.828427 -2.828427 6.000000
2.435046 -3.173413 6.000000
2.000000 -3.464102 6.000000
1.530734 -3.695518 6.000000
1.035276 -3.863703 6.000000
0.522105 -3.965779 6.000000
-0.000000 -4.000000 6.000000
-0.522105 -3.965779 6.000000
-1.035276 -3.863703 6.000000
-1.530734 -3.695518 6.000000
4.165701 0.531633 6.000000
4.064452 1.054596 6.000000
3.897895 1.560502 6.000000
3.668713 2.041238 6.000000
3.380593 2.489098 6.000000
3.038165 2.896902 6.000000
2.646927 3.258111 6.000000
2.213159 3.566935 6.000000
1.743818 3.818419 6.000000
1.246436 4.008530 6.000000
0.728988 4.134215 6.000000
0.199776 4.193453 6.000000
-0.332711 4.185286 6.000000
-0.859932 4.109834 6.000000
-1.373427 3.968297 6.000000
-1.864953 3.762931 6.000000
-2.326317 3.496563 6.000000
-2.749933 3.173571 6.000000
-3.129255 2.799640 6.000000
-3.458208 2.380779 6.000000
-3.731525 1.923715 6.000000
-3.944830 1.435785 6.000000
-4.094707 0.924820 6.000000
-4.178757 0.399019 6.000000
-4.195635 -0.133184 6.000000
-4.145071 -0.663251 6.000000
-4.027874 -1.182677 6.000000
-3.845919 -1.683130 6.000000
-3.602121 -2.156579 6.000000
-3.300381 -2.595425 6.000000
-2.945533 -2.992621 6.000000
-2.543258 -3.341786 6.000000
-1.636722 -3.866950 6.000000
-1.148923 -4.038114 6.000000
-0.643916 -4.148264 6.000000
-0.129267 -4.195764 6.000000
0.387317 -4.179909 6.000000
0.898102 -4.100936 6.000000
1.395436 -3.960014 6.000000
1.871867 -3.759236 6.000000
2.319661 -3.500702 6.000000
2.731755 -3.188490 6.000000
3.102464 -2.828247 6.000000
3.426249 -2.425381 6.000000
3.698271 -1.985933 6.000000
3.914460 -1.516484 6.000000
4.071571 -1.024061 6.000000
4.167238 -0.516032 6.000000
-2.448099 -3.162700 6.000000
-2.851514 -2.803776 6.000000
-3.202921 -2.393864 6.000000
-3.495942 -1.940426 6.000000
-3.725258 -1.451708 6.000000
-3.886708 -0.936599 6.000000
-3.977362 -0.404463 6.000000
-3.995575 0.135026 6.000000
-3.941016 0.672059 6.000000
-3.814677 1.196875 6.000000
-3.618848 1.699933 6.000000
-3.357084 2.172085 6.000000
-3.034136 2.604743 6.000000
-2.655866 2.990037 6.000000
-2.229139 3.320953 6.000000
-1.761460 3.590968 6.000000
-1.261515 3.795066 6.000000
-0.738706 3.930011 6.000000
-0.202538 3.993362 6.000000
0.337239 3.983981 6.000000
0.870814 3.902044 6.000000
1.388488 3.749050 6.000000
1.880852 3.527782 6.000000
2.338956 3.242265 6.000000
2.754472 2.897688 6.000000
3.119845 2.500314 6.000000
3.428429 2.057362 6.000000
3.674608 1.576879 6.000000
3.853898 1.067596 6.000000
3.963028 0.538766 6.000000
-2.000000 -3.464102 5.454545
-2.000000 -3.464102 4.909091
-2.000000 -3.464102 4.363636
-2.000000 -3.464102 3.818182
-2.000000 -3.464102 3.272727
-2.000000 -3.464102 2.727273
-2.000000 -3.464102 2.181818
-2.000000 -3.464102 1.636364
-2.000000 -3.464102 1.090909
-2.000000 -3.464102 0.545455
4.000000 0.000000 0.545455
4.000000 0.000000 1.090909
4.000000 0.000000 1.636364
4.000000 0.000000 2.181818
4.000000 0.000000 2.727273
4.000000 0.000000 3.272727
4.000000 0.000000 3.818182
4.000000 0.000000 4.363636
4.000000 0.000000 4.909091
4.000000 0.000000 5.454545
-2.100000 -3.637307 0.545455
-2.100000 -3.637307 1.090909
-2.100000 -3.637307 1.636364
-2.100000 -3.637307 2.181818
-2.100000 -3.637307 2.727273
-2.100000 -3.637307 3.272727
-2.100000 -3.637307 3.818182
-2.100000 -3.637307 4.363636
-2.100000 -3.637307 4.909091
-2.100000 -3.637307 5.454545
4.200000 0.000000 5.454545
4.200000 0.000000 4.909091
4.200000 0.000000 4.363636
4.200000 0.000000 3.818182
4.200000 0.000000 3.272727
4.200000 0.000000 2.727273
4.200000 0.000000 2.181818
4.200000 0.000000 1.636364
4.200000 0.000000 1.090909
4.200000 0.000000 0.545455
-3.899627 -0.854677 2.778919
2.727140 2.917254 3.263483
-3.760756 -1.338549 2.730044
3.573719 1.777718 3.714462
3.976021 0.365850 5.632614
3.908890 0.808105 5.557726
3.970879 0.444301 5.185006
3.771386 1.307235 5.517662
3.967899 0.489767 4.654756
3.556465 1.812705 5.530378
3.968206 0.485079 4.100611
3.276741 2.280405 5.532319
3.968715 0.477313 3.549009
2.939975 2.701232 5.532319
3.969105 0.471366 3.000000
2.549606 3.072947 5.532319
3.969105 0.471366 2.454545
2.112720 3.388785 5.532319
3.968931 0.474016 1.900450
1.637247 3.642992 5.532319
3.968181 0.485461 1.344964
1.131820 3.830931 5.532319
3.971004 0.442396 0.819987
0.605617 3.949168 5.532319
3.976247 0.362395 0.366702
0.068196 3.995530 5.532319
-0.470679 3.969150 5.532319
3.909661 0.804230 0.445856
-1.001214 3.870479 5.532319
3.770309 1.310408 0.490396
-1.513761 3.701280 5.532319
3.555349 1.814968 0.484332
-1.998998 3.464596 5.532319
3.276054 2.281434 0.475772
-2.446841 3.163069 5.532319
2.938501 2.702912 0.467681
-2.849852 2.803996 5.532319
2.547925 3.074421 0.467681
-3.200803 2.394054 5.532319
2.110861 3.390027 0.467681
-3.493340 1.940711 5.532319
1.635242 3.643980 0.467681
-3.722170 1.452221 5.532319
1.129703 3.831650 0.467681
-3.883158 0.937473 5.532319
0.603424 3.949604 0.467681
-3.973401 0.405829 5.532319
0.065965 3.995676 0.467681
-3.991280 -0.133046 5.532319
-0.472910 3.969004 0.467681
-3.936489 -0.669357 5.532319
-1.003406 3.870043 0.467681
-3.810041 -1.193360 5.532319
-1.515878 3.700561 0.467681
-3.614248 -1.695534 5.532319
-2.000929 3.463481 0.467681
-3.348241 -2.173397 5.524619
-2.448522 3.161595 0.467681
-3.018765 -2.611388 5.513001
-2.851326 2.802316 0.467681
-2.652445 -2.982759 5.554183
-3.202045 2.392195 0.467681
-2.308156 -3.258198 5.629787
-3.494329 1.938706 0.467681
-3.722888 1.450104 0.467681
-2.368628 -3.217792 5.180013
-3.883594 0.935281 0.467681
-2.406677 -3.192369 4.652753
-3.973547 0.403599 0.467681
-2.392768 -3.201663 4.090909
-3.991134 -0.135276 0.467681
-2.396331 -3.199282 3.547807
-3.936053 -0.671550 0.467681
-2.392768 -3.201663 3.000000
-3.809323 -1.195477 0.467681
-2.392768 -3.201663 2.454545
-3.612463 -1.699152 0.473481
-2.393611 -3.201099 1.901962
-3.347709 -2.174194 0.482288
-2.403514 -3.194482 1.347544
-3.018909 -2.611224 0.489207
-2.370811 -3.216333 0.815600
-2.654969 -2.980546 0.442375
-2.307691 -3.258509 0.369537
3.871723 0.994958 4.998412
3.680172 1.561852 5.066226
3.878420 0.961291 4.383916
3.431334 2.049040 5.061113
3.878673 0.960017 3.831589
3.121391 2.494366 5.060745
3.883674 0.934879 3.275251
2.752614 2.894913 5.067312
3.884435 0.931049 2.727273
2.337229 3.238772 5.067312
3.883205 0.937233 2.170647
1.879416 3.523567 5.067312
3.883937 0.933555 1.615568
1.387506 3.744137 5.067312
3.872455 0.991277 1.008790
0.870444 3.896490 5.067312
0.337633 3.977870 5.067312
-0.201242 3.986810 5.067312
-0.736386 3.923156 5.067312
-1.258075 3.788073 5.067312
3.676677 1.568940 0.969186
-1.756828 3.584021 5.067312
3.427905 2.054172 0.965604
-2.223580 3.314710 5.067312
3.113403 2.503474 0.942564
-2.649849 2.985036 5.067312
2.750933 2.896387 0.932688
-3.027886 2.600988 5.067312
2.335371 3.240014 0.932688
-3.350816 2.169544 5.067312
1.877412 3.524556 0.932688
-3.612765 1.698541 5.067312
1.385389 3.744856 0.932688
-3.808963 1.196535 5.067312
0.868252 3.896927 0.932688
-3.935835 0.672646 5.067312
0.335403 3.978017 0.932688
[...]
POINT_DATA 7744
SCALARS solution float 1
LOOKUP_TABLE default
-79.917245 -79.917251 -79.917245 -79.917251 -79.845004 -79.845002 -79.845009 -79.845008 -79.917154 -79.917060 -79.916992 -79.916965 -79.916978 -79.917015 -79.917054 -79.917073 -79.917060 -79.917018 -79.916963 -79.916923 -79.916922 -79.916969 -79.917055 -79.917155 -79.917335 -79.917411 -79.917486 -79.917581 -79.917700 -79.917829 -79.917945 -79.918034 -79.918094 -79.918129 -79.918147 -79.918156 -79.918160 -79.918163 -79.918164 -79.918165 -79.918164 -79.918162 -79.918159 -79.918152 -79.918137 -79.918106 -79.918052 -79.917967 -79.917852 -79.917720 -79.917594 -79.917490 -79.917411 -79.917338 -79.917147 -79.917041 -79.916954 -79.916916 -79.916930 -79.916981 -79.917037 -79.917068 -79.917063 -79.917028 -79.916985 -79.916962 -79.916982 -79.917046 -79.917147 -79.917336 -79.917405 -79.917477 -79.917569 -79.917683 -79.917808 -79.917924 -79.918017 -79.918083 -79.918123 -79.918145 -79.918156 -79.918161 -79.918164 -79.918164 -79.918164 -79.918164 -79.918163 -79.918161 -79.918158 -79.918152 -79.918138 -79.918113 -79.918068 -79.917997 -79.917901 -79.917785 -79.917665 -79.917558 -79.917474 -79.917405 -79.917331 -79.844845 -79.844710 -79.844627 -79.844623 -79.844687 -79.844783 -79.844860 -79.844881 -79.844834 -79.844737 -79.844634 -79.844575 -79.844596 -79.844695 -79.844839 -79.845156 -79.845318 -79.845506 -79.845743 -79.846032 -79.846344 -79.846637 -79.846870 -79.847026 -79.847107 -79.847134 -79.847130 -79.847115 -79.847099 -79.847088 -79.847083 -79.847085 -79.847090 -79.847104 -79.847125 -79.847149 -79.847166 -79.847155 -79.847093 -79.846956 -79.846735 -79.846444 -79.846120 -79.845808 -79.845545 -79.845336 -79.845161 -79.844847 -79.844712 -79.844611 -79.844574 -79.844612 -79.844701 -79.844800 -79.844869 -79.844882 -79.844835 -79.844750 -79.844664 -79.844618 -79.844638 -79.844722 -79.844856 -79.845171 -79.845359 -79.845590 -79.845884 -79.846224 -79.846561 -79.846843 -79.847035 -79.847135 -79.847165 -79.847154 -79.847129 -79.847106 -79.847091 -79.847084 -79.847084 -79.847089 -79.847101 -79.847117 -79.847132 -79.847127 -79.847079 -79.846958 -79.846749 -79.846461 -79.846131 -79.845812 -79.845546 -79.845339 -79.845165 -79.843846 -79.841701 -79.841798 -79.847064 -79.857982 -79.872466 -79.887426 -79.900334 -79.909809 -79.915422 -79.915417 -79.909805 -79.900332 -79.887425 -79.872460 -79.857964 -79.847039 -79.841778 -79.841687 -79.843841 -79.915421 -79.909809 -79.900336 -79.887433 -79.872477 -79.857983 -79.847058 -79.841802 -79.841714 -79.843856 -79.843850 -79.841699 -79.841784 -79.847043 -79.857962 -79.872450 -79.887418 -79.900330 -79.909806 -79.915415 -79.871881 -79.859473 -79.873122 -79.849348 -79.844558 -79.844469 -79.842865 -79.844512 -79.841384 -79.844797 -79.843713 -79.845104 -79.851937 -79.845437 -79.865059 -79.845754 -79.880145 -79.846006 -79.894524 -79.846169 -79.905940 -79.846249 -79.913162 -79.846271 -79.916485 -79.846262 -79.846245 -79.916156 -79.846230 -79.915966 -79.846221 -79.916081 -79.846219 -79.916238 -79.846222 -79.916412 -79.846234 -79.916539 -79.846254 -79.916643 -79.846280 -79.916717 -79.846303 -79.916763 -79.846299 -79.916788 -79.846240 -79.916800 -79.846098 -79.916805 -79.845859 -79.916807 -79.845542 -79.916808 -79.845193 -79.916808 -79.844837 -79.916809 -79.844528 -79.916809 -79.844470 -79.916807 -79.844555 -79.916803 -79.916793 -79.842852 -79.916772 -79.841399 -79.916731 -79.843813 -79.916661 -79.851962 -79.916559 -79.865061 -79.916432 -79.880152 -79.916265 -79.894494 -79.916099 -79.905899 -79.915971 -79.913199 -79.916174 -79.916475 -79.842318 -79.842803 -79.842006 -79.843061 -79.847128 -79.843389 -79.858142 -79.843755 -79.872646 -79.844046 -79.887865 -79.844251 -79.900884 -79.844366 -79.911048 -79.844410 -79.844410 -79.844393 -79.844375 -79.844362 -79.911616 -79.844359 -79.911748 -79.844359 -79.912152 -79.844365 -79.912401 -79.844381 -79.912522 -79.844408 -79.912614 -79.844438 -79.912674 -79.844456 -79.912707 -79.844436 -79.912723 -79.844346 -79.912729 -79.844160 -79.912731 -79.843876 -79.912732 -79.843529 -79.912733 -79.843112 -79.912734 -79.842797 -79.912732 -79.842317 -79.912732 -79.912730 -79.912725 -79.912712 -79.912683 -79.842049 -79.912627 -79.847223 -79.912538 -79.858248 -79.912417 -79.872636 -79.912244 -79.887875 -79.911813 -79.900957 -79.911662 -79.911072 -79.841710 -79.841945 -79.843964 -79.842256 -79.852413 -79.842599 -79.865543 -79.842920 -79.880715 -79.843164 -79.895119 -79.843314 -79.905184 -79.843381 -79.843393 -79.843379 -79.843360 -79.843343 -79.843333 -79.902967 -79.843336 -79.904993 -79.843336 -79.905146 -79.843346 -79.905453 -79.843368 -79.905703 -79.843400 -79.905784 -79.843433 -79.905831 -79.843445 -79.905854 -79.843406 -79.905861 -79.843285 -79.905861 -79.843056 -79.905861 -79.842729 -79.905862 -79.842361 -79.905861 -79.842031 -79.905862 -79.841748 -79.905862 -79.905863 -79.905861 -79.905857 -79.905837 -79.905795 -79.844067 -79.905717 -79.852644 -79.905600 -79.865599 -79.905427 -79.880668 -79.905209 -79.895078 -79.903208 -79.905255 -79.844319 -79.844742 -79.858995 -79.844837 -79.873396 -79.844963 -79.888716 -79.845142 -79.845245 -79.845258 -79.845264 -79.845241 -79.845225 -79.845199 -79.845206 -79.845200 -79.894607 -79.845192 -79.895389 -79.845225 -79.896033 -79.845249 -79.896277 -79.845286 -79.896376 -79.845328 -79.896439 -79.845346 -79.896409 -79.845289 -79.896391 -79.845117 -79.896420 -79.844699 -79.896373 -79.844525 -79.896372 -79.844309 -79.896363 -79.896399 -79.896399 -79.896394 -79.896442 -79.896388 -79.896448 -79.896524 -79.896469 -79.858929 -79.896198 -79.873503 -79.895450 -79.889460 -79.895651 -79.849310 -79.896123 -79.852651 -79.851642 -79.865482 -79.850774 -79.880213 -79.851010 -79.851110 -79.851129 -79.851137 -79.851121 -79.851088 -79.851082 -79.851068 -79.851061 -79.851053 -79.881902 -79.851086 -79.883914 -79.851130 -79.884647 -79.851147 -79.884832 -79.851173 -79.884927 -79.851218 -79.884969 -79.851262 -79.884929 -79.851262 -79.884895 -79.850866 -79.884867 -79.849395 -79.884864 -79.851888 -79.884848 -79.884854 -79.884937 -79.884971 -79.885003 -79.884974 -79.884935 -79.884978 -79.885436 -79.885244 -79.864924 -79.884497 -79.882169 -79.865441 -79.860712 -79.860669 -79.860667 -79.860685 -79.860745 -79.860639 -79.860618 -79.860631 -79.860560 -79.860510 -79.860644 -79.870934 -79.860751 -79.872179 -79.860777 -79.872361 -79.860738 -79.872461 -79.860704 -79.872597 -79.860752 -79.872534 -79.860704 -79.872384 -79.860969 -79.872393 -79.859702 -79.872392 -79.872360 -79.872332 -79.872440 -79.872631 -79.872607 -79.872572 -79.872484 -79.872488 -79.872498 -79.874862 -79.895753 -79.840930 -79.905486 -79.848410 -79.844354 -79.842596 -79.843645 -79.841122 -79.843727 -79.843562 -79.843803 -79.851786 -79.843895 -79.864873 -79.844004 -79.879983 -79.844083 -79.894158 -79.844096 -79.905736 -79.844041 -79.913024 -79.843945 -79.916378 -79.843853 -79.843761 -79.843816 -79.915567 -79.844142 -79.915673 -79.915662 -79.915702 -79.842327 -79.915764 -79.841105 -79.915816 -79.843500 -79.915830 -79.851765 -79.915803 -79.864854 -79.915756 -79.879972 -79.915716 -79.894401 -79.915639 -79.905460 -79.915723 -79.912471 -79.916135 -79.843952 -79.915875 -79.841638 -79.841842 -79.841531 -79.841890 -79.846779 -79.842042 -79.857782 -79.842147 -79.872558 -79.842242 -79.887770 -79.842287 -79.900607 -79.842268 -79.910627 -79.842191 -79.842091 -79.841881 -79.841894 -79.841925 -79.911701 -79.911724 -79.911725 -79.911775 -79.911837 -79.841363 -79.911872 -79.846528 -79.911867 -79.857757 -79.911832 -79.872271 -79.911790 -79.887787 -79.911410 -79.901262 -79.911576 -79.911605 -79.840925 -79.840927 -79.843257 -79.840939 -79.852018 -79.841038 -79.864965 -79.841137 -79.880339 -79.841200 -79.895490 -79.841214 -79.905358 -79.841175 -79.841087 -79.840984 -79.841017 -79.905337 -79.905180 -79.904688 -79.905214 -79.905285 -79.843050 -79.905083 -79.851213 -79.905034 -79.864703 -79.904975 -79.880323 -79.904850 -79.894870 -79.903152 -79.843040 -79.842986 -79.858213 -79.843139 -79.872248 -79.843326 -79.887014 -79.843123 -79.843289 -79.843114 -79.842948 -79.845781 -79.894209 -79.895179 -79.895108 -79.895723 -79.894998 -79.857142 -79.895143 -79.873104 -79.895289 -79.889295 -79.850533 -79.848120 -79.864364 -79.851270 -79.879314 -79.848877 -79.849349 -79.850711 -79.848016 -79.850158 -79.884727 -79.881448 -79.883607 -79.884313 -79.880679 -79.864678 -79.884824 -79.881677 -79.857837 -79.871652 -79.857999 -79.858454 -79.860139 -79.857879 -79.869942 -79.871810 -79.872325 -79.871951 -79.864931 -79.864771 -79.898105 -79.842573 -79.872733 -79.865969 -79.865861 -79.849208 -79.844565 -79.842860 -79.844496 -79.841400 -79.844794 -79.843811 -79.845123 -79.851968 -79.845450 -79.865067 -79.845766 -79.880149 -79.846027 -79.894495 -79.846205 -79.905950 -79.846301 -79.913190 -79.846333 -79.916500 -79.846326 -79.846302 -79.916186 -79.846279 -79.915975 -79.846262 -79.916096 -79.846252 -79.916261 -79.846247 -79.916428 -79.846251 -79.916554 -79.846258 -79.916662 -79.846271 -79.916743 -79.846287 -79.916796 -79.846298 -79.916827 -79.846290 -79.916843 -79.846240 -79.916851 -79.846124 -79.916855 -79.845929 -79.916857 -79.845661 -79.916859 -79.845351 -79.916857 -79.845043 -79.916858 -79.844740 -79.916856 -79.844482 -79.916853 -79.844462 -79.916848 -79.844553 -79.916838 -79.916819 -79.842854 -79.916784 -79.841385 -79.916727 -79.843794 -79.916642 -79.851945 -79.916532 -79.865053 -79.916409 -79.880143 -79.916294 -79.894574 -79.916175 -79.906019 -79.916104 -79.912688 -79.916337 -79.844459 -79.842250 -79.842777 -79.842021 -79.843083 -79.847198 -79.843427 -79.858185 -79.843795 -79.872638 -79.844091 -79.887872 -79.844310 -79.900906 -79.844439 -79.911052 -79.844492 -79.844495 -79.844472 -79.844444 -79.844421 -79.911669 -79.844407 -79.911864 -79.844396 -79.912293 -79.844395 -79.912489 -79.844405 -79.912612 -79.844416 -79.912710 -79.844432 -79.912778 -79.844449 -79.912818 -79.844456 -79.912838 -79.844433 -79.912847 -79.844357 -79.912850 -79.844207 -79.912850 -79.843974 -79.912849 -79.843679 -79.912850 -79.843360 -79.912851 -79.842999 -79.912849 -79.842730 -79.912849 -79.842271 -79.912848 -79.912845 -79.912834 -79.912811 -79.912766 -79.841982 -79.912695 -79.847163 -79.912594 -79.858200 -79.912473 -79.872881 -79.912299 -79.888053 -79.911972 -79.901437 -79.912035 -79.911985 -79.841712 -79.841960 -79.843994 -79.842260 -79.852567 -79.842606 -79.865268 -79.842934 -79.880698 -79.843190 -79.895033 -79.843354 -79.905247 -79.843429 -79.843443 -79.843422 -79.843391 -79.843362 -79.843342 -79.903226 -79.843329 -79.905376 -79.843321 -79.905556 -79.843330 -79.905625 -79.843340 -79.905752 -79.843355 -79.906008 -79.843373 -79.906065 -79.843389 -79.906095 -79.843389 -79.906107 -79.843350 -79.906111 -79.843248 -79.906111 -79.843065 -79.906111 -79.842802 -79.906112 -79.842487 -79.906107 -79.842164 -79.906110 -79.841896 -79.906113 -79.841673 -79.906113 -79.906112 -79.906108 -79.906092 -79.906058 -79.905997 -79.843931 -79.905787 -79.852523 -79.905676 -79.865633 -79.905556 -79.880948 -79.905392 -79.895297 -79.903704 -79.905784 -79.844220 -79.844462 -79.858815 -79.844755 -79.873660 -79.845127 -79.889174 -79.845100 -79.845173 -79.845207 -79.845199 -79.845167 -79.845138 -79.845109 -79.845091 -79.845073 -79.896034 -79.845076 -79.895929 -79.845084 -79.895780 -79.845103 -79.896395 -79.845122 -79.896668 -79.845135 -79.896719 -79.845150 -79.896736 -79.845145 -79.896726 -79.845091 -79.896723 -79.845029 -79.896713 -79.844955 -79.896703 -79.844482 -79.896696 -79.844192 -79.896712 -79.844045 -79.896711 -79.896709 -79.896713 -79.896718 -79.896708 -79.896688 -79.896655 -79.896527 -79.895852 -79.858727 -79.895988 -79.873716 -79.895974 -79.889580 -79.896883 -79.849071 -79.896902 -79.851972 -79.849552 -79.865842 -79.852316 -79.882405 -79.850891 -79.850889 -79.850960 -79.850974 -79.850974 -79.850935 -79.850912 -79.850862 -79.850856 -79.850848 -79.886017 -79.850856 -79.881919 -79.850881 -79.884413 -79.850914 -79.885050 -79.850937 -79.885194 -79.850943 -79.885226 -79.850968 -79.885227 -79.850953 -79.885201 -79.850931 -79.885164 -79.851115 -79.885141 -79.852129 -79.885112 -79.849031 -79.885150 -79.851347 -79.885178 -79.885195 -79.885216 -79.885227 -79.885224 -79.885190 -79.885144 -79.885093 -79.884883 -79.882176 -79.865555 -79.885689 -79.882405 -79.859534 -79.872530 -79.859440 -79.860399 -79.860546 -79.860613 -79.860586 -79.860579 -79.860547 -79.860448 -79.860431 -79.860396 -79.860406 -79.860478 -79.870949 -79.860516 -79.872455 -79.860586 -79.872633 -79.860549 -79.872640 -79.860569 -79.872628 -79.860565 -79.872679 -79.860475 -79.872587 -79.860605 -79.872522 -79.861468 -79.872478 -79.858663 -79.872450 -79.872512 -79.872608 -79.872609 -79.872640 -79.872648 -79.872632 -79.872515 -79.872279 -79.872478 -79.873251 -79.842263 -79.897033 -79.840937 -79.905436 -79.844364 -79.842583 -79.843677 -79.841108 -79.843780 -79.843538 -79.843856 -79.851763 -79.843933 -79.864859 -79.844028 -79.879985 -79.844101 -79.894169 -79.844121 -79.905742 -79.844077 -79.913009 -79.843985 -79.916378 -79.843881 -79.843808 -79.843745 -79.915603 -79.843834 -79.915746 -79.844193 -79.915743 -79.915775 -79.915821 -79.842413 -79.915858 -79.841131 -79.915865 -79.843434 -79.915832 -79.851799 -79.915774 -79.864878 -79.915718 -79.879978 -79.915692 -79.894471 -79.915624 -79.905943 -79.915726 -79.912545 -79.916165 -79.843954 -79.915891 -79.841656 -79.841925 -79.841472 -79.841904 -79.846474 -79.841999 -79.857530 -79.842172 -79.872289 -79.842258 -79.887681 -79.842303 -79.900623 -79.842290 -79.910671 -79.842224 -79.842125 -79.842009 -79.841859 -79.841904 -79.911760 -79.842020 -79.911831 -79.911829 -79.911863 -79.911903 -79.911923 -79.841357 -79.911908 -79.846514 -79.911860 -79.857800 -79.911801 -79.872286 -79.911698 -79.887802 -79.911421 -79.901302 -79.911541 -79.911662 -79.840931 -79.840932 -79.842748 -79.840975 -79.850535 -79.841050 -79.864085 -79.841145 -79.880062 -79.841202 -79.895247 -79.841212 -79.905303 -79.841177 -79.841103 -79.841006 -79.840921 -79.840982 -79.905277 -79.905206 -79.904740 -79.905285 -79.905140 -79.905345 -79.843027 -79.905110 -79.851275 -79.905108 -79.864717 -79.905011 -79.880362 -79.905004 -79.894953 -79.903117 -79.844368 -79.843326 -79.856258 -79.843159 -79.871524 -79.843271 -79.886467 -79.843050 -79.843095 -79.843242 -79.843048 -79.842817 -79.845750 -79.893961 -79.895097 -79.895123 -79.895755 -79.895837 -79.895066 -79.857159 -79.895312 -79.873239 -79.895679 -79.889311 -79.851117 -79.848310 -79.864206 -79.850921 -79.879078 -79.848694 -79.848810 -79.849391 -79.850717 -79.848059 -79.850013 -79.884555 -79.881402 -79.883419 -79.884447 -79.884324 -79.880986 -79.864929 -79.885090 -79.882590 -79.858000 -79.871521 -79.857658 -79.858243 -79.859151 -79.859705 -79.857939 -79.869610 -79.871326 -79.872059 -79.872338 -79.872176 -79.864829 -79.865155 -79.897843 -79.890846 -79.873766 -79.865649 -79.873584 -79.869047 -79.877317 -79.869227 -79.846558 -79.848268 -79.844389 -79.844242 -79.843140 -79.846363 -79.841340 -79.841023 -79.841318 -79.841281 -79.842082 -79.841298 -79.842064 -79.841264 -79.842025 -79.905987 -79.905987 -79.905864 -79.901422 -79.901419 -79.901588 -79.854083 -79.849348 -79.852501 -79.852540 -79.857888 -79.854133 -79.901581 -79.896561 -79.901744 -79.851643 -79.849191 -79.848869 -79.844809 -79.846837 -79.885101 -79.890912 -79.891000 -79.890901 -79.885086 -79.884990 -79.844688 -79.844120 -79.844811 -79.844807 -79.845006 -79.844689 -79.879616 -79.884104 -79.877692 -79.877374 -79.872827 -79.879335 -79.890692 -79.890333 -79.896124 -79.890696 -79.891064 -79.884832 -79.909122 -79.909198 -79.905294 -79.905462 -79.905384 -79.909282 -79.878043 -79.881581 -79.885856 -79.889316 -79.885992 -79.881735 -79.890023 -79.893188 -79.893297 -79.890905 -79.896398 -79.896558 -79.891060 -79.842847 -79.842035 -79.842833 -79.843855 -79.845393 -79.843862 -79.841765 -79.841749 -79.842279 -79.913095 -79.911330 -79.914212 -79.914216 -79.915416 -79.913095 -79.841400 -79.841567 -79.841562 -79.841575 -79.841687 -79.841693 -79.896698 -79.896574 -79.896564 -79.891010 -79.891132 -79.891139 -79.905891 -79.905922 -79.906027 -79.909752 -79.909724 -79.909639 -79.914705 -79.914794 -79.912387 -79.912368 -79.912267 -79.914697 -79.877664 -79.878096 -79.872897 -79.880065 -79.879654 -79.900655 -79.900895 -79.895744 -79.901071 -79.900835 -79.851157 -79.855486 -79.855474 -79.860659 -79.855570 -79.855578 -79.842137 -79.842217 -79.843404 -79.844663 -79.846247 -79.845326 -79.845343 -79.845319 -79.846239 -79.846225 -79.844392 -79.845358 -79.845375 -79.901740 -79.905982 -79.901584 -79.905976 -79.901733 -79.906098 -79.844386 -79.844413 -79.845369 -79.846232 -79.845311 -79.845335 -79.844378 -79.845360 -79.845341 -79.891050 -79.894250 -79.897514 -79.900334 -79.897514 -79.894252 -79.887429 -79.894248 -79.891050 -79.883872 -79.878471 -79.877954 -79.876585 -79.882067 -79.882527 -79.844925 -79.844741 -79.844926 -79.912724 -79.909638 -79.909646 -79.909709 -79.912782 -79.912775 -79.861502 -79.860943 -79.857683 -79.854484 -79.854976 -79.858067 -79.854372 -79.857509 -79.861158 -79.857950 -79.854783 -79.909807 -79.909741 -79.917000 -79.917010 -79.917022 -79.916701 -79.916699 -79.916679 -79.860680 -79.866402 -79.866418 -79.866332 -79.860625 -79.860621 -79.911849 -79.911875 -79.911884 -79.914248 -79.914221 -79.914207 -79.905985 -79.905863 -79.909650 -79.855351 -79.861085 -79.855694 -79.860473 -79.854786 -79.860103 -79.842115 -79.842097 -79.842786 -79.842922 -79.842937 -79.842244 -79.868158 -79.865037 -79.862418 -79.862591 -79.868380 -79.841834 -79.842539 -79.842024 -79.842509 -79.841807 -79.842283 -79.841955 -79.842968 -79.842890 -79.842947 -79.841944 -79.858486 -79.855602 -79.859077 -79.862215 -79.855238 -79.842949 -79.843804 -79.842889 -79.878876 -79.878686 -79.885079 -79.878828 -79.879004 -79.872513 -79.860568 -79.855456 -79.860646 -79.878742 -79.872582 -79.872462 -79.844992 -79.845081 -79.844913 -79.845077 -79.844990 -79.845160 -79.843409 -79.843645 -79.843376 -79.843753 -79.842843 -79.843760 -79.866364 -79.866392 -79.872591 -79.872641 -79.866385 -79.845447 -79.849779 -79.850135 -79.844373 -79.844370 -79.844345 -79.905852 -79.901576 -79.901408 -79.901459 -79.905745 -79.905891 -79.847392 -79.850656 -79.846159 -79.846149 -79.843947 -79.847374 -79.858171 -79.855209 -79.855232 -79.858642 -79.861826 -79.861790 -79.858510 -79.858594 -79.852467 -79.855145 -79.861742 -79.865588 -79.870471 -79.870956 -79.871819 -79.866062 -79.865586 -79.864773 -79.901753 -79.901753 -79.896709 -79.901579 -79.901578 -79.905986 -79.843332 -79.843602 -79.843619 -79.843608 -79.843332 -79.843334 -79.865809 -79.872060 -79.871561 -79.890694 -79.890884 -79.884873 -79.891019 -79.890820 -79.896401 -79.853636 -79.857186 -79.860029 -79.864394 -79.860328 -79.857465 -79.841685 -79.841852 -79.842549 -79.841864 -79.841691 -79.841384 -79.900247 -79.903010 -79.897350 -79.903167 -79.900422 -79.905601 -79.887422 -79.890876 -79.890876 -79.887341 -79.883752 -79.883753 -79.865292 -79.868934 -79.861541 -79.868813 -79.865173 -79.872763 -79.865129 -79.861506 -79.850994 -79.855364 -79.855558 -79.860600 -79.855409 -79.855217 -79.883751 -79.887342 -79.879978 -79.891090 -79.883832 -79.887640 -79.887607 -79.894549 -79.891062 -79.883834 -79.880144 -79.887605 -79.842717 -79.843099 -79.841981 -79.843098 -79.842713 -79.843845 -79.849207 -79.850818 -79.846260 -79.861094 -79.854516 -79.857865 -79.857857 -79.864856 -79.861092 -79.842555 -79.842859 -79.841878 -79.843657 -79.841689 -79.842077 -79.841602 -79.843473 -79.842897 -79.916859 -79.916901 -79.917100 -79.917152 -79.917105 -79.916905 -79.843789 -79.843783 -79.843696 -79.843703 -79.844513 -79.844221 -79.844910 -79.844220 -79.844555 -79.843782 -79.844509 -79.844580 -79.844660 -79.844771 -79.844596 -79.844526 -79.844048 -79.844716 -79.844776 -79.844537 -79.916494 -79.914860 -79.914793 -79.912452 -79.914775 -79.914841 -79.915108 -79.915150 -79.916834 -79.915207 -79.915166 -79.912791 -79.901749 -79.905987 -79.906108 -79.917001 -79.916680 -79.916704 -79.916709 -79.917028 -79.917014 -79.916682 -79.915768 -79.916702 -79.916737 -79.915797 -79.916729 -79.915800 -79.90