# vtk DataFile Version 2.0
Test
ASCII
DATASET UNSTRUCTURED_GRID
POINTS 7095 FLOAT
9.238795 0.000000 3.826834
-4.619398 -8.001031 3.826834
9.914449 0.000000 -1.305262
-4.957224 -8.586164 -1.305262
7.933533 0.000000 -6.087614
-3.966767 -6.870641 -6.087614
11.086554 0.000000 4.592201
-5.543277 9.601238 4.592201
-5.543277 -9.601238 4.592201
-4.760120 -8.244770 -7.305137
7.305137 0.000000 -9.520240
-3.652569 -6.326434 -9.520240
-5.989955 -7.029459 3.826834
-7.162868 -5.827407 3.826834
-8.100153 -4.433939 3.826834
-8.771367 -2.894246 3.826834
-9.151191 -1.257774 3.826834
-9.225020 0.420344 3.826834
-8.995606 2.083986 3.826834
-8.470439 3.679187 3.826834
-7.666450 5.154155 3.826834
-6.604687 6.456073 3.826834
-5.325088 7.543970 3.826834
-3.870725 8.383647 3.826834
-2.288780 8.947863 3.826834
-0.630404 9.216418 3.826834
1.048950 9.175209 3.826834
2.693018 8.832417 3.826834
4.248481 8.199274 3.826834
5.664859 7.296277 3.826834
6.892174 6.149104 3.826834
7.889980 4.797968 3.826834
8.628116 3.289522 3.826834
9.082667 1.672724 3.826834
8.443953 0.000000 5.347814
7.405735 0.000000 6.713722
6.149457 0.000000 7.882777
4.709905 0.025206 8.814636
3.779925 -0.585312 9.238795
3.161767 -2.154153 9.238795
1.913460 -3.314109 9.238795
0.284767 -3.815237 9.238795
-1.383067 -3.566167 9.238795
-2.376782 -4.066294 8.814636
-3.074728 -5.325586 7.882777
-3.702868 -6.413555 6.713722
-4.221976 -7.312678 5.347814
9.758306 0.000000 2.163329
9.985711 0.000000 0.436020
9.759158 -1.720837 -1.305262
9.312098 -3.389290 -1.305262
8.586164 -4.957224 -1.305262
7.591260 -6.369868 -1.305262
6.369868 -7.591260 -1.305262
4.957224 -8.586164 -1.305262
3.389290 -9.312098 -1.305262
1.720837 -9.759158 -1.305262
-0.000000 -9.914449 -1.305262
-1.720837 -9.759158 -1.305262
-3.389290 -9.312098 -1.305262
-4.992855 -8.647879 0.436020
-4.879153 -8.450941 2.163329
-5.306715 -5.893757 -6.087614
-6.415048 -4.660827 -6.087614
-7.243919 -3.225181 -6.087614
-7.757501 -1.648872 -6.087614
-7.933533 -0.000000 -6.087614
-7.757501 1.648872 -6.087614
-7.243919 3.225181 -6.087614
-6.415048 4.660827 -6.087614
-5.306715 5.893757 -6.087614
-3.966767 6.870641 -6.087614
-2.450786 7.542629 -6.087614
-0.828871 7.886008 -6.087614
0.828871 7.886008 -6.087614
2.450786 7.542629 -6.087614
3.966767 6.870641 -6.087614
5.306715 5.893757 -6.087614
6.415048 4.660827 -6.087614
7.243919 3.225181 -6.087614
7.757501 1.648872 -6.087614
-4.766303 -8.255479 -3.005655
-4.432945 -7.678085 -4.615251
8.865889 0.000000 -4.615251
9.532606 0.000000 -3.005655
6.773028 0.000000 -7.350193
5.418470 0.000000 -8.400012
3.963133 0.024069 -9.174867
3.560676 -1.397658 -9.238795
2.601466 -2.803862 -9.238795
1.127370 -3.654901 -9.238795
-0.570046 -3.782446 -9.238795
-2.002525 -3.420275 -9.174785
-2.709238 -4.692538 -8.400008
-3.386514 -5.865614 -7.350193
-4.048643 -10.315649 4.592201
-2.465676 -10.802912 4.592201
-0.828235 -11.052637 4.592201
0.828235 -11.052637 4.592201
2.465676 -10.802912 4.592201
4.048643 -10.315649 4.592201
5.543277 -9.601238 4.592201
6.909292 -8.664052 4.592201
8.122758 -7.536794 4.592201
9.157747 -6.243591 4.592201
9.985982 -4.809046 4.592201
10.588434 -3.266118 4.592201
10.957935 -1.651597 4.592201
10.342116 0.000000 6.080704
9.399653 0.000000 7.452062
8.283686 -0.025820 8.676827
7.281017 0.059644 9.538939
7.198317 1.221917 9.520240
6.771215 2.736703 9.520240
5.975804 4.195530 9.520240
4.873546 5.438949 9.520240
3.517253 6.398756 9.520240
1.979852 7.029176 9.520240
0.339559 7.294009 9.520240
-1.318313 7.182399 9.520240
-2.907732 6.698235 9.520240
-4.346754 5.867446 9.520240
-5.560810 4.733103 9.520240
-6.486448 3.353179 9.520240
-7.077309 1.800252 9.520240
-7.300103 0.153621 9.520240
-7.147103 -1.500873 9.520240
-6.621450 -3.077184 9.520240
-5.755835 -4.495481 9.520240
-4.657357 -5.622978 9.520240
-3.692154 -6.275734 9.538935
-4.119490 -7.186803 8.676814
-4.699827 -8.140338 7.452062
-5.171058 -8.956535 6.080704
-6.909292 8.664052 4.592201
-8.122758 7.536794 4.592201
-9.157747 6.243591 4.592201
-9.985982 4.809046 4.592201
-10.588434 3.266118 4.592201
-10.957935 1.651597 4.592201
-11.086554 0.000000 4.592201
-10.957935 -1.651597 4.592201
-10.588434 -3.266118 4.592201
-9.985982 -4.809046 4.592201
-9.157747 -6.243591 4.592201
-8.122758 -7.536794 4.592201
-6.909292 -8.664052 4.592201
10.957935 1.651597 4.592201
10.588434 3.266118 4.592201
9.985982 4.809046 4.592201
9.157747 6.243591 4.592201
8.122758 7.536794 4.592201
6.909292 8.664052 4.592201
5.543277 9.601238 4.592201
4.048643 10.315649 4.592201
2.465676 10.802912 4.592201
0.828235 11.052637 4.592201
-0.828235 11.052637 4.592201
-2.465676 10.802912 4.592201
-4.048643 10.315649 4.592201
7.104458 1.683797 -9.520240
6.526727 3.277816 -9.520240
5.593372 4.693429 -9.520240
4.360735 5.857428 -9.520240
2.892314 6.705222 -9.520240
1.267943 7.190717 -9.520240
-0.424691 7.291219 -9.520240
-2.094018 6.994540 -9.520240
-3.652569 6.326434 -9.520240
-5.010440 5.310742 -9.520240
-6.102035 4.013403 -9.520240
-6.861315 2.497288 -9.520240
-7.253049 0.847793 -9.520240
-7.253049 -0.847793 -9.520240
-6.861315 -2.497288 -9.520240
-6.102035 -4.013403 -9.520240
-5.010440 -5.310742 -9.520240
11.630729 0.000000 2.935884
11.931534 0.000000 1.218991
11.982853 0.000000 -0.523224
11.783612 0.000000 -2.254994
11.332404 0.000000 -3.938924
10.639067 0.000000 -5.538301
9.723517 0.000000 -7.021444
8.604565 0.000000 -8.357915
-4.242641 -7.348469 -8.485281
-6.142780 -7.267934 -7.305137
-7.332405 -6.064227 -7.305137
-8.292671 -4.670496 -7.305137
-8.989563 -3.127715 -7.305137
-9.398720 -1.485308 -7.305137
-9.513583 0.203135 -7.305137
-9.330602 1.885989 -7.305137
-8.846391 3.508155 -7.305137
-8.083771 5.019008 -7.305137
-7.068454 6.372388 -7.305137
-5.882699 7.481392 -7.305137
-4.879193 8.104371 -7.385087
-4.928543 8.728156 -6.586006
-5.388925 9.333892 -5.273462
-5.705080 9.881488 -3.702268
-5.908049 10.233040 -2.058279
-5.993875 10.381697 -0.373770
-5.960883 10.324553 1.318200
-5.809706 10.062706 2.984427
-5.196152 -9.000000 -6.000000
-5.543277 -9.601238 -4.592201
-5.795555 -10.038196 -3.105829
-5.948669 -10.303397 -1.566314
-6.000000 -10.392305 0.000000
-5.948669 -10.303397 1.566314
-5.795555 -10.038196 3.105829
-2.986544 -5.168293 -10.409017
-2.254458 -3.987161 -11.091534
-0.803033 -4.519287 -11.086554
0.794037 -4.520773 -11.086554
2.296029 -3.977001 -11.086554
3.517983 -2.948167 -11.086554
4.315277 -1.564348 -11.086554
4.580212 -0.041162 -11.091534
5.969145 0.002276 -10.409017
-3.693800 -0.737409 9.256469
8.795961 0.852310 4.611533
-5.850067 -0.306906 8.078817
-1.430906 2.523959 9.552477
5.730271 6.225358 5.274481
6.810312 4.968878 5.327836
4.527354 7.138366 5.286636
7.697075 3.720646 5.139205
3.151844 7.847601 5.296146
8.088824 1.896785 5.507341
1.663858 8.297022 5.269235
0.178405 8.464625 5.275280
-1.375689 8.357197 5.265037
-2.819751 7.981169 5.266552
6.711082 1.722810 7.192082
-4.245652 7.334387 5.276917
5.160152 1.766876 8.348916
-5.492397 6.439605 5.268124
-0.774648 -0.525320 9.938523
-6.552339 5.369742 5.262297
1.968430 -0.536516 9.768143
-7.450473 4.051639 5.251357
0.856575 -1.781277 9.780101
-8.045096 2.643259 5.260849
-8.425227 1.187559 5.220012
-8.519661 -0.429302 5.168301
-2.899905 -2.353857 9.268177
-8.246181 -1.977267 5.252320
-4.040569 -3.583982 8.384608
-7.746471 -3.433214 5.263431
-4.925196 -4.847991 7.208580
-7.092055 -4.727721 5.177432
-5.745361 -5.975641 5.541145
-1.015615 -2.193996 9.692292
4.548781 6.043011 6.504481
5.652646 5.069539 6.457953
6.736036 3.499986 6.461487
3.350507 6.793190 6.478460
2.142966 7.402210 6.337115
0.766482 7.445733 6.586559
-0.579499 7.660782 6.355317
-1.902568 7.243816 6.591268
-3.213087 6.983219 6.353157
5.762122 2.929544 7.591645
-4.246130 6.136556 6.607743
3.467415 2.840302 8.912106
-5.395055 5.154274 6.615419
1.191661 0.981494 9.866485
-6.414813 4.249764 6.341051
0.551238 -0.131736 9.962800
-6.901271 2.971224 6.559386
-7.427648 1.524124 6.469603
-7.859796 0.278444 6.150885
-7.586244 -1.066658 6.393838
-4.693770 -1.696091 8.659873
3.715774 1.240315 9.190055
-5.675551 -3.117791 7.586709
-6.449433 -4.148586 6.372392
-7.077104 -2.573784 6.530660
-2.312032 -0.664772 9.695066
4.313237 4.857983 7.562866
3.290663 5.770397 7.444753
5.391606 4.073862 7.343211
1.724930 6.280676 7.558048
-0.540468 6.457375 7.578196
-2.632124 5.884226 7.611010
-5.434703 3.526688 7.578886
-0.444917 1.151440 9.918989
-6.081249 1.553065 7.764084
-6.344487 -1.607462 7.527853
-5.149987 -7.191069 4.596367
-4.071945 4.774023 7.758166
1.510731 3.579405 9.209237
0.338217 2.446122 9.682690
-6.933064 0.090172 7.186911
-4.823525 0.321280 8.736897
2.583082 4.536109 8.511945
0.570817 5.097034 8.570419
-1.307276 5.103700 8.478537
-4.635145 2.062357 8.606686
2.136053 2.056118 9.530325
-1.954062 0.935571 9.742245
-2.556987 4.050361 8.759567
-0.584497 3.859074 9.199105
-3.437770 0.796209 9.337991
-3.070992 2.305164 9.231147
4.455048 3.547109 8.192222
2.548485 0.660853 9.643680
-3.996841 3.407202 8.484673
1.577524 -8.589757 4.815571
3.384615 -6.785058 6.469556
0.177762 -5.079670 8.599235
-3.874514 -9.200636 0.200839
9.865614 -1.385053 0.494318
9.468137 -1.513003 2.757044
8.789145 -1.441393 4.472141
7.834723 -1.551163 5.982252
9.007656 -4.237281 0.393970
6.616789 -1.560781 7.301140
8.163302 -5.687717 0.475907
5.021785 -1.516933 8.490449
7.077229 -7.012371 0.520917
5.749424 -8.117659 0.531986
4.310705 -8.959388 0.559336
3.314088 -3.871793 8.588737
2.703257 -9.578757 0.600001
1.939205 -4.681505 8.615318
1.017218 -9.895173 0.582129
-1.307280 -5.221824 8.400959
-0.715191 -9.922733 0.463680
-2.448586 -9.648891 0.571894
-1.861510 -6.587039 7.264504
-2.400993 -7.581557 6.035973
-2.974539 -8.357242 4.536372
-3.478742 -8.835285 3.042758
9.547056 -2.883080 0.175193
4.476975 -2.972869 8.402579
-3.736531 -9.127682 1.551501
9.260596 -3.075243 1.988325
8.903693 -2.644887 3.642817
8.109037 -2.936306 5.028759
7.052739 -3.044826 6.366949
8.474674 -4.828128 2.096704
5.763448 -3.008186 7.560031
7.525813 -6.193532 2.067711
6.362017 -7.371797 2.091417
5.076713 -8.310401 2.125996
[...]
POINT_DATA 7095
SCALARS solution float 1
LOOKUP_TABLE default
0.000019 0.000018 0.000026 0.000025 0.000020 0.000018 0.000015 0.000028 0.000018 0.000015 0.000018 0.000013 0.000034 0.000021 0.000021 0.000029 0.000024 0.000034 0.000038 0.000025 0.000022 0.000020 0.000026 0.000026 0.000042 0.000032 0.000026 0.000038 0.000029 0.000027 0.000016 0.000020 0.000024 0.000025 0.000028 0.000026 0.000026 0.000027 0.000015 0.000023 0.000024 0.000022 0.000026 0.000031 0.000038 0.000029 0.000026 0.000029 0.000021 0.000032 0.000033 0.000019 0.000018 0.000016 0.000019 0.000022 0.000024 0.000020 0.000016 0.000027 0.000016 0.000022 0.000020 0.000021 0.000019 0.000022 0.000022 0.000017 0.000013 0.000017 0.000025 0.000027 0.000029 0.000030 0.000018 0.000015 0.000016 0.000017 0.000015 0.000009 0.000011 0.000021 0.000029 0.000015 0.000029 0.000017 0.000020 0.000017 0.000025 0.000016 0.000018 0.000022 0.000021 0.000012 0.000015 0.000021 0.000031 0.000024 0.000037 0.000022 0.000027 0.000044 0.000030 0.000014 0.000015 0.000019 0.000025 0.000018 0.000022 0.000030 0.000025 0.000026 0.000031 0.000025 0.000025 0.000030 0.000030 0.000024 0.000023 0.000027 0.000035 0.000037 0.000021 0.000034 0.000026 0.000020 0.000033 0.000024 0.000031 0.000043 0.000038 0.000029 0.000021 0.000021 0.000028 0.000018 0.000021 0.000022 0.000032 0.000041 0.000034 0.000023 0.000028 0.000022 0.000018 0.000031 0.000035 0.000023 0.000031 0.000019 0.000015 0.000016 0.000025 0.000029 0.000043 0.000043 0.000017 0.000026 0.000037 0.000027 0.000018 0.000010 0.000025 0.000031 0.000011 0.000013 0.000019 0.000018 0.000025 0.000030 0.000010 0.000015 0.000026 0.000014 0.000011 0.000024 0.000022 0.000027 0.000025 0.000025 0.000029 0.000022 0.000014 0.000031 0.000026 0.000017 0.000019 0.000019 0.000012 0.000013 0.000025 0.000022 0.000019 0.000013 0.000013 0.000026 0.000031 0.000026 0.000024 0.000019 0.000021 0.000025 0.000031 0.000030 0.000026 0.000033 0.000029 0.000020 0.000025 0.000016 0.000019 0.000023 0.000007 0.000020 0.000019 0.000016 0.000011 0.000023 0.000027 0.000018 0.000025 0.000018 0.000023 0.000024 0.000018 0.000019 0.000020 0.000025 0.000020 0.000026 0.000028 0.000035 0.000036 0.000044 0.000036 0.000030 0.000031 0.000027 0.000026 0.000031 0.000026 0.000020 0.000029 0.000027 0.000035 0.000029 0.000026 0.000024 0.000035 0.000039 0.000034 0.000032 0.000020 0.000025 0.000028 0.000022 0.000016 0.000017 0.000026 0.000025 0.000028 0.000039 0.000041 0.000039 0.000022 0.000039 0.000031 0.000024 0.000023 0.000029 0.000029 0.000041 0.000033 0.000024 0.000030 0.000026 0.000023 0.000026 0.000021 0.000026 0.000030 0.000032 0.000028 0.000024 0.000022 0.000028 0.000036 0.000029 0.000026 0.000028 0.000028 0.000029 0.000030 0.000025 0.000018 0.000020 0.000021 0.000030 0.000023 0.000023 0.000028 0.000020 0.000023 0.000022 0.000023 0.000015 0.000017 0.000031 0.000014 0.000020 0.000019 0.000024 0.000026 0.000017 0.000040 0.000030 0.000025 0.000032 0.000015 0.000021 0.000012 0.000020 0.000021 0.000026 0.000022 0.000022 0.000035 0.000020 0.000030 0.000030 0.000021 0.000020 0.000025 0.000030 0.000022 0.000023 0.000038 0.000025 0.000018 0.000023 0.000024 0.000029 0.000015 0.000010 0.000021 0.000022 0.000041 0.000041 0.000020 0.000020 0.000027 0.000022 0.000038 0.000020 0.000030 0.000027 0.000028 0.000022 0.000025 0.000017 0.000016 0.000013 0.000024 0.000036 0.000036 0.000017 0.000036 0.000026 0.000029 0.000028 0.000014 0.000027 0.000013 0.000025 0.000012 0.000027 0.000022 0.000026 0.000018 0.000015 0.000024 0.000013 0.000029 0.000024 0.000017 0.000027 0.000012 0.000029 0.000024 0.000035 0.000016 0.000028 0.000030 0.000022 0.000017 0.000027 0.000019 0.000035 0.000029 0.000028 0.000024 0.000028 0.000015 0.000024 0.000013 0.000028 0.000019 0.000030 0.000023 0.000023 0.000030 0.000014 0.000015 0.000015 0.000016 0.000024 0.000014 0.000027 0.000016 0.000010 0.000025 0.000016 0.000026 0.000019 0.000022 0.000025 0.000023 0.000016 0.000022 0.000012 0.000022 0.000027 0.000016 0.000019 0.000021 0.000016 0.000014 0.000022 0.000018 0.000025 0.000021 0.000025 0.000040 0.000032 0.000023 0.000036 0.000035 0.000017 0.000022 0.000017 0.000014 0.000013 0.000017 0.000011 0.000027 0.000026 0.000017 0.000019 0.000017 0.000022 0.000019 0.000029 0.000012 0.000015 0.000018 0.000023 0.000019 0.000030 0.000017 0.000012 0.000028 0.000020 0.000014 0.000021 0.000018 0.000009 0.000024 0.000021 0.000026 0.000021 0.000030 0.000017 0.000030 0.000025 0.000026 0.000023 0.000026 0.000013 0.000014 0.000014 0.000013 0.000019 0.000022 0.000022 0.000021 0.000024 0.000018 0.000021 0.000031 0.000034 0.000012 0.000021 0.000020 0.000027 0.000027 0.000023 0.000027 0.000011 0.000031 0.000020 0.000025 0.000027 0.000025 0.000020 0.000018 0.000013 0.000011 0.000016 0.000005 0.000021 0.000014 0.000025 0.000017 0.000018 0.000022 0.000017 0.000034 0.000028 0.000030 0.000016 0.000025 0.000015 0.000031 0.000024 0.000022 0.000008 0.000015 0.000010 0.000014 0.000018 0.000022 0.000020 0.000017 0.000016 0.000023 0.000011 0.000018 0.000028 0.000021 0.000009 0.000008 0.000022 0.000021 0.000017 0.000022 0.000011 0.000014 0.000020 0.000033 0.000027 -0.000001 0.000022 0.000020 0.000012 0.000023 0.000025 0.000014 0.000011 0.000019 0.000015 0.000021 0.000014 0.000031 0.000024 0.000008 0.000012 -0.000002 0.000020 0.000029 0.000028 0.000023 0.000020 0.000033 0.000029 0.000018 0.000030 -0.000005 0.000016 0.000011 0.000014 0.000026 0.000013 0.000016 0.000012 0.000017 0.000014 0.000031 0.000024 0.000018 0.000006 0.000019 -0.000003 0.000016 0.000006 0.000013 0.000017 0.000004 0.000009 0.000013 0.000015 0.000009 0.000004 0.000031 0.000013 0.000004 0.000010 0.000031 0.000023 0.000018 0.000019 0.000038 0.000029 0.000026 0.000042 0.000020 0.000020 0.000018 0.000019 0.000024 0.000022 0.000022 0.000023 0.000031 0.000029 0.000025 0.000027 0.000029 0.000025 0.000025 0.000024 0.000020 0.000026 0.000031 0.000029 0.000033 0.000029 0.000020 0.000031 0.000011 0.000030 0.000020 0.000025 0.000034 0.000029 0.000033 0.000034 0.000025 0.000036 0.000019 0.000014 0.000020 0.000031 0.000020 0.000025 0.000030 0.000021 0.000028 0.000031 0.000026 0.000021 0.000018 0.000020 0.000017 0.000016 0.000020 0.000023 0.000023 0.000034 0.000024 0.000017 0.000028 0.000017 0.000021 0.000024 0.000022 0.000018 0.000022 0.000021 0.000020 0.000029 0.000031 0.000022 0.000013 0.000020 0.000028 0.000021 0.000033 0.000018 0.000027 0.000014 0.000022 0.000015 0.000027 0.000025 0.000027 0.000027 0.000023 0.000022 0.000023 0.000018 0.000023 0.000020 0.000024 0.000019 0.000024 0.000026 0.000024 0.000025 0.000027 0.000024 0.000020 0.000021 0.000021 0.000023 0.000019 0.000016 0.000019 0.000033 0.000026 0.000032 0.000031 0.000023 0.000031 0.000025 0.000017 0.000023 0.000028 0.000020 0.000038 0.000021 0.000035 0.000026 0.000030 0.000030 0.000035 0.000021 0.000027 0.000033 0.000026 0.000040 0.000035 0.000048 0.000027 0.000033 0.000027 0.000035 0.000027 0.000049 0.000029 0.000026 0.000036 0.000024 0.000027 0.000024 0.000022 0.000017 0.000028 0.000025 0.000037 0.000024 0.000021 0.000029 0.000032 0.000023 0.000018 0.000023 0.000016 0.000017 0.000026 0.000024 0.000031 0.000042 0.000032 0.000035 0.000025 0.000035 0.000033 0.000022 0.000027 0.000025 0.000017 0.000029 0.000039 0.000031 0.000031 0.000007 0.000026 0.000018 0.000017 0.000033 0.000026 0.000024 0.000014 0.000025 0.000009 0.000021 0.000021 0.000020 0.000031 0.000018 0.000022 0.000019 0.000012 0.000027 0.000031 0.000026 0.000038 0.000022 0.000044 0.000034 0.000024 0.000016 0.000017 0.000022 0.000018 0.000018 0.000016 0.000022 0.000015 0.000022 0.000022 0.000028 0.000027 0.000017 0.000014 0.000027 0.000020 0.000013 0.000022 0.000013 0.000025 0.000040 0.000033 0.000017 0.000013 0.000026 0.000026 0.000029 0.000023 0.000015 0.000017 0.000027 0.000021 0.000019 0.000020 0.000022 0.000012 0.000011 0.000016 0.000019 0.000010 0.000024 0.000013 0.000023 0.000016 0.000024 0.000016 0.000017 0.000018 0.000017 0.000007 0.000010 0.000020 0.000017 0.000020 0.000021 0.000016 0.000009 0.000019 0.000029 0.000014 0.000012 0.000020 0.000018 0.000015 0.000019 0.000024 0.000014 0.000025 0.000017 0.000022 0.000022 0.000014 0.000019 0.000016 0.000012 0.000014 0.000012 0.000027 0.000026 0.000017 0.000022 0.000031 0.000011 0.000029 0.000022 0.000019 0.000031 0.000036 0.000010 0.000016 0.000022 0.000017 0.000029 0.000029 0.000012 0.000015 0.000018 0.000023 0.000020 0.000019 0.000025 0.000027 0.000027 0.000016 0.000029 0.000017 0.000026 0.000020 0.000022 0.000017 0.000026 0.000017 0.000010 0.000017 0.000030 0.000013 0.000020 0.000024 0.000013 0.000020 0.000013 0.000023 0.000032 0.000028 0.000021 0.000025 0.000019 0.000020 0.000019 0.000020 0.000037 0.000018 0.000037 0.000023 0.000023 0.000019 0.000020 0.000022 0.000023 0.000029 0.000027 0.000023 0.000023 0.000014 0.000015 0.000013 0.000017 0.000016 0.000018 0.000023 0.000035 0.000018 0.000009 0.000025 0.000018 0.000014 0.000030 0.000013 0.000034 0.000029 0.000017 0.000040 0.000019 0.000021 0.000030 0.000028 0.000020 0.000016 0.000014 0.000018 0.000025 0.000016 0.000029 0.000025 0.000013 0.000013 0.000021 0.000020 0.000030 0.000019 0.000020 0.000024 0.000033 0.000036 0.000020 0.000021 0.000025 0.000018 0.000014 0.000014 0.000030 0.000012 0.000019 0.000022 0.000012 0.000013 0.000022 0.000018 0.000031 0.000038 0.000028 0.000033 0.000020 0.000032 0.000036 0.000027 0.000036 0.000027 0.000025 0.000021 0.000033 0.000018 0.000022 0.000018 0.000024 0.000034 0.000013 0.000021 0.000041 0.000018 0.000030 0.000018 0.000015 0.000029 0.000021 0.000018 0.000013 0.000009 0.000007 0.000010 0.000030 0.000011 0.000013 0.000015 0.000022 0.000022 0.000025 0.000029 0.000040 0.000032 0.000034 0.000026 0.000036 0.000018 0.000030 0.000017 0.000024 0.000023 0.000026 0.000018 0.000018 0.000017 0.000027 0.000025 0.000029 0.000014 0.000017 0.000017 0.000012 0.000018 0.000017 0.000025 0.000025 0.000020 0.000024 0.000027 0.000031 0.000032 0.000029 0.000029 0.000022 0.000022 0.000022 0.000026 0.000032 0.000018 0.000018 0.000028 0.000024 0.000013 0.000015 0.000013 0.000013 0.000010 0.000021 0.000020 0.000020 0.000021 0.000017 0.000023 0.000032 0.000016 0.000020 0.000020 0.000023 0.000018 0.000025 0.000019 0.000007 0.000029 0.000022 0.000022 0.000019 0.000024 0.000022 0.000015 0.000015 0.000020 0.000025 0.000023 0.000006 0.000019 0.000015 0.000031 0.000019 0.000030 0.000021 0.000007 0.000033 0.000010 -0.000004 0.000006 -0.000000 0.000014 0.000027 0.000009 0.000029 0.000012 0.000012 0.000012 0.000016 0.000007 0.000034 0.000008 0.000026 0.000013 0.000015 0.000006 0.000008 0.000003 0.000013 0.000012 0.000010 0.000015 -0.000000 0.000024 0.000004 0.000001 0.000029 0.000011 0.000003 0.000008 0.000003 0.000001 0.000012 0.000015 0.000020 0.000011 -0.000003 -0.000001 0.000007 0.000002 0.000002 -0.000004 0.000000 0.000009 0.000014 0.000016 0.000014 0.000013 0.000016 0.000015 0.000015 0.000013 0.000016 0.000016 0.000015 0.000015 0.000015 0.000016 0.000016 0.000018 0.000019 0.000015 0.000012 0.000015 0.000027 0.000028 0.000027 0.000032 0.000029 0.000030 0.000022 0.000023 0.000024 0.000032 0.000036 0.000036 0.000033 0.000029 0.000031 0.000027 0.000032 0.000027 0.000033 0.000026 0.000027 0.000042 0.000038 0.000033 0.000035 0.000036 0.000039 0.000028 0.000032 0.000032 0.000032 0.000034 0.000033 0.000038 0.000035 0.000036 0.000033 0.000035 0.000036 0.000032 0.000035 0.000039 0.000025 0.000026 0.000024 0.000019 0.000021 0.000023 0.000020 0.000022 0.000023 0.000025 0.000023 0.000022 0.000012 0.000018 0.000019 0.000019 0.000015 0.000014 0.000018 0.000021 0.000020 0.000024 0.000026 0.000023 0.000009 0.000009 0.000011 0.000011 0.000011 0.000009 0.000025 0.000023 0.000026 0.000024 0.000028 0.000024 0.000012 0.000012 0.000010 0.000010 0.000011 0.000011 0.000016 0.000021 0.000020 0.000021 0.000017 0.000021 0.000033 0.000040 0.000039 0.000037 0.000030 0.000031 0.000025 0.000025 0.000017 0.000022 0.000022 0.000024 0.000023 0.000019 0.000017 0.000021 0.000022 0.000042 0.000042 0.000041 0.000044 0.000040 0.000046 -0.000004 -0.000004 -0.000004 -0.000003 -0.000003 -0.000004 0.000029 0.000031 0.000035 0.000033 0.000025 0.000026 0.000032 0.000033 0.000019 0.000017 0.000016 0.000017 0.000022 0.000021 0.000023 0.000021 0.000026 0.000019 0.000020 0.000017 0.000015 0.000014 0.000014 0.000015 0.000016 0.000019 0.000014 0.000018 0.000014 0.000021 0.000019 0.000021 0.000015 0.000010 0.000015 0.000013 0.000016 0.000013 0.000019 0.000018 0.000023 0.000029 0.000027 0.000024 0.000012 0.000013 0.000022 0.000018 0.000019 0.000013 0.000020 0.000021 0.000027 0.000025 0.000021 0.000022 0.000012 0.000010 0.000009 0.000009 0.000010 0.000010 0.000010 0.000010 0.000013 0.000028 0.000028 0.000023 0.000031 0.000030 0.000033 0.000018 0.000016 0.000016 0.000014 0.000014 0.000018 0.000028 0.000030 0.000028 0.000026 0.000028 0.000030 0.000032 0.000034 0.000033 0.000034 0.000032 0.000032 0.000029 0.000028 0.000031 0.000027 0.000032 0.000029 0.000019 0.000020 0.000023 0.000021 0.000021 0.000018 0.000013 0.000021 0.000022 0.000025 0.000017 0.000016 0.000014 0.000019 0.000019 0.000020 0.000016 0.000015 0.000016 0.000014 0.000017 0.000030 0.000033 0.000007 0.000012 0.000008 0.000010 0.000007 0.000009 0.000012 0.000010 0.000016 0.000011 0.000011 0.000008 0.000008 0.000010 0.000010 0.000007 0.000007 0.000006 0.000030 0.000013 0.000016 0.000012 0.000018 0.000013 0.000020 0.000017 0.000012 0.000011 0.000012 0.000017 0.000017 0.000023 0.000021 0.000023 0.000023 0.000028 0.000022 0.000021 0.000020 0.000023 0.000009 0.000011 0.000009 0.000009 0.000009 0.000012 0.000014 0.000014 0.000014 0.000016 0.000013 0.000018 0.000025 0.000024 0.000025 0.000027 0.000029 0.000029 0.000030 0.000026 0.000034 0.000033 0.000036 0.000030 0.000024 0.000021 0.000023 0.000020 0.000021 0.000019 0.000026 0.000026 0.000021 0.000019 0.000019 0.000023 0.000027 0.000026 0.000031 0.000024 0.000027 0.000023 0.000021 0.000027 0.000026 0.000026 0.000018 0.000022 0.000025 0.000026 0.000021 0.000026 0.000027 0.000023 0.000020 0.000018 0.000016 0.000020 0.000021 0.000030 0.000029 0.000029 0.000030 0.000031 0.000035 0.000030 0.000039 0.000036 0.000036 0.000031 0.000029 0.000029 0.000028 0.000031 0.000030 0.000036 0.000039 0.000042 0.000041 0.000038 0.000040 0.000026 0.000033 0.000031 0.000028 0.000031 0.000033 0.000028 0.000029 0.000028 0.000016 0.000018 0.000018 0.000016 0.000016 0.000013 0.000026 0.000024 0.000022 0.000020 0.000026 0.000025 0.000021 0.000027 0.000020 0.000013 0.000015 0.000016 0.000014 0.000011 0.000010 0.000027 0.000023 0.000025 0.000018 0.000022 0.000021 0.000015 0.000011 0.000012 0.000015 0.000013 0.000014 0.000029 0.000030 0.000029 0.000031 0.000031 0.000027 0.000016 0.000018 0.000015 0.000022 0.000020 0.000025 0.000027 0.000031 0.000031 0.000017 0.000024 0.000026 0.000031 0.000029 0.000028 0.000029 0.000026 0.000032 0.000020 0.000018 0.000021 0.000020 0.000021 0.000016 0.000012 0.000009 0.000012 0.000010 0.000012 0.000010 0.000027 0.000028 0.000027 0.000028 0.000013 0.000014 0.000016 0.000012 0.000014 0.000012 0.000015 0.000013 0.000027 0.000020 0.000015 0.000015 0.000020 0.000022 0.000014 0.000016 0.000017 0.000015 0.000015 0.000022 0.000023 0.000025 0.000020 0.000021 0.000019 0.000014 0.000018 0.000015 0.000026 0.000020 0.000013 0.000015 0.000014 0.000019 0.000021 0.000016 0.000020 0.000022 0.000021 0.000020 0.000016 0.000016 0.000018 0.000024 0.000022 0.000026 0.000019 0.000020 0.000023 0.000020 0.000028 0.000029 0.000023 0.000016 0.000015 0.000015 0.000014 0.000018 0.000017 0.000037 0.000025 0.000027 0.000018 0.000023 0.000022 0.000026 0.000024 0.000024 0.000022 0.000021 0.000023 0.000019 0.000018 0.000015 0.000016 0.000016 0.000018 0.000023 0.000012 0.000019 0.000017 0.000015 0.000013 0.000016 0.000019 0.000017 0.000013 0.000021 0.000022 0.000023 0.000020 0.000025 0.000026 0.000025 0.000024 0.000027 0.000027 0.000028 0.000032 0.000032 0.000028 0.000030 0.000029 0.000035 0.000024 0.000028 0.000015 0.000016 0.000029 0.000028 0.000024 0.000022 0.000024 0.000026 0.000027 0.000022 0.000024 0.000027 0.000027 0.000025 0.000017 0.000018 0.000015 0.000014 0.000015 0.000018 0.000014 0.000009 0.000007 0.000005 0.000009 0.000008 0.000027 0.000023 0.000023 0.000022 0.000027 0.000025 -0.000003 0.000003 0.000001 0.000002 0.000004 0.000014 0.000013 0.000011 0.000011 0.000004 0.000023 0.000026 0.000024 0.000027 0.000026 0.000026 -0.000003 -0.000002 -0.000001 -0.000004 -0.000003 0.000018 0.000015 0.000020 0.000019 0.000019 0.000017 0.000014 0.000017 0.000019 0.000019 0.000020 0.000017 0.000026 0.000025 0.000026 0.000025 0.000027 0.000024 0.000025 0.000026 0.000021 0.000021 0.000021 0.000024 0.000014 0.000025 0.000020 0.000021 0.000020 0.000019 0.000020 0.000019 0.000011 0.000009 0.000015 0.000016 0.000019 0.000010 0.000018 0.000019 0.000016 0.000013 0.000016 0.000021 0.000021 0.000023 0.000025 0.000029 0.000023 0.000026 0.000026 0.000025 0.000023 0.000024 0.000032 0.000018 0.000018 0.000020 0.000021 0.000021 0.000021 0.000024 0.000033 0.000028 0.000033 0.000026 0.000027 0.000034 0.000033 0.000031 0.000033 0.000033 0.000028 0.000028 0.000024 0.000025 0.000025 0.000033 0.000024 0.000021 0.000025 0.000031 0.000021 0.000018 0.000019 0.000018 0.000020 0.000020 0.000013 0.000013 0.000014 0.000015 0.000018 0.000018 0.000020 0.000019 0.000021 0.000022 0.000018 0.000020 0.000018 0.000020 0.000020 0.000030 0.000029 0.000026 0.000021 0.000023 0.000026 0.000032 0.000033 0.000029 0.000030 0.000032 0.000035 0.000027 0.000023 0.000023 0.000023 0.000026 0.000028 0.000041 0.000032 0.000038 0.000031 0.000040 0.000035 0.000025 0.000026 0.000024 0.000034 0.000032 0.000030 0.000029 0.000031 0.000020 0.000027 0.000028 0.000032 0.000027 0.000027 0.000033 0.000030 0.000031 0.000031 0.000033 0.000019 0.000024 0.000020 0.000021 0.000018 0.000020 0.000017 0.000019 0.000018 0.000024 0.000023 0.000021 0.000021 0.000018 0.000022 0.000020 0.000023 0.000016 0.000027 0.000029 0.000029 0.000022 0.000019 0.000015 0.000019 0.000019 0.000024 0.000019 0.000020 0.000024 0.000021 0.000017 0.000003 -0.000002 -0.000003 -0.000002 -0.000001 0.000003 0.000037 0.000036 0.000036 0.000022 0.000014 0.000012 0.000013 0.000017 0.000021 0.000018 0.000019 0.000018 0.000018 0.000018 0.000019 0.000019 0.000017 0.000030 0.000015 0.000015 0.000016 0.000011 0.000013 0.000019 0.000018 0.000016 0.000016 0.000019 0.000022 0.000016 0.000019 0.000019 0.000028 0.000024 0.000023 0.000028 0.000027 0.000022 0.000021 0.000018 0.000021 0.000021 0.000022 0.000014 0.000016 0.000011 0.000035 0.000033 0.000035 0.000033 0.000034 0.000031 0.000028 0.000025 0.000025 0.000024 0.000023 0.000026 0.000025 0.000022 0.000026 0.000022 0.000020 0.000024 0.000028 0.000029 0.000024 0.000031 0.000032 0.000031 0.000036 0.000037 0.000036 0.000040 0.000040 0.000041 0.000036 0.000038 0.000041 0.000038 0.000042 0.000038 0.000030 0.000037 0.000033 0.000022 0.000017 0.000022 0.000017 0.000021 0.000018 0.000028 0.000029 0.000026 0.000027 0.000027 0.000030 0.000026 0.000021 0.000018 0.000025 0.000022 0.000021 0.000029 0.000033 0.000030 0.000036 0.000040 0.000034 0.000035 0.000041 0.000036 0.000027 0.000024 0.000025 0.000027 0.000026 0.000025 0.000020 0.000022 0.000019 0.000023 0.000020 0.000014 0.000020 0.000018 0.000013 0.000028 0.000028 0.000028 0.000029 0.000026 0.000032 0.000036 0.000035 0.000029 0.000028 0.000025 0.000021 0.000020 0.000023 0.000013 0.000012 0.000013 0.000021 0.000020 0.000019 0.000020 0.000020 0.000015 0.000014 0.000013 0.000011 0.000012 0.000014 0.000023 0.000020 0.000024 0.000020 0.000024 0.000019 0.000024 0.000026 0.000026 0.000017 0.000017 0.000015 0.000017 0.000017 0.000018 0.000016 0.000017 0.000013 0.000013 0.000014 0.000013 0.000014 0.000017 0.000012 0.000012 0.000013 0.000022 0.000018 0.000015 0.000014 0.000018 0.000020 0.000028 0.000015 0.000016 0.000012 0.000019 0.000020 0.000019 0.000017 0.000014 0.000015 0.000016 0.000019 0.000016 0.000023 0.000018 0.000017 0.000016 0.000017 0.000012 0.000020 0.000012 0.000023 0.000022 0.000020 0.000034 0.000033 0.000027 0.000029 0.000032 0.000033 0.000029 0.000035 0.000034 0.000031 0.000034 0.00